 Entering Gaussian System, Link 0=g16
 Input=run.inp
 Output=run.out
 Initial command:
 /apps/eb/gaussian/16-AVX2/g16/l1.exe "/scratch/gtemp/avcopan/Gau-1087337.inp" -scrdir="/scratch/gtemp/avcopan/"
 Entering Link 1 = /apps/eb/gaussian/16-AVX2/g16/l1.exe PID=   1087338.
  
 Copyright (c) 1988-2019, Gaussian, Inc.  All Rights Reserved.
  
 This is part of the Gaussian(R) 16 program.  It is based on
 the Gaussian(R) 09 system (copyright 2009, Gaussian, Inc.),
 the Gaussian(R) 03 system (copyright 2003, Gaussian, Inc.),
 the Gaussian(R) 98 system (copyright 1998, Gaussian, Inc.),
 the Gaussian(R) 94 system (copyright 1995, Gaussian, Inc.),
 the Gaussian 92(TM) system (copyright 1992, Gaussian, Inc.),
 the Gaussian 90(TM) system (copyright 1990, Gaussian, Inc.),
 the Gaussian 88(TM) system (copyright 1988, Gaussian, Inc.),
 the Gaussian 86(TM) system (copyright 1986, Carnegie Mellon
 University), and the Gaussian 82(TM) system (copyright 1983,
 Carnegie Mellon University). Gaussian is a federally registered
 trademark of Gaussian, Inc.
  
 This software contains proprietary and confidential information,
 including trade secrets, belonging to Gaussian, Inc.
  
 This software is provided under written license and may be
 used, copied, transmitted, or stored only in accord with that
 written license.
  
 The following legend is applicable only to US Government
 contracts under FAR:
  
                    RESTRICTED RIGHTS LEGEND
  
 Use, reproduction and disclosure by the US Government is
 subject to restrictions as set forth in subparagraphs (a)
 and (c) of the Commercial Computer Software - Restricted
 Rights clause in FAR 52.227-19.
  
 Gaussian, Inc.
 340 Quinnipiac St., Bldg. 40, Wallingford CT 06492
  
  
 ---------------------------------------------------------------
 Warning -- This program may not be used in any manner that
 competes with the business of Gaussian, Inc. or will provide
 assistance to any competitor of Gaussian, Inc.  The licensee
 of this program is prohibited from giving any competitor of
 Gaussian, Inc. access to this program.  By using this program,
 the user acknowledges that Gaussian, Inc. is engaged in the
 business of creating and licensing software in the field of
 computational chemistry and represents and warrants to the
 licensee that it is not a competitor of Gaussian, Inc. and that
 it will not use this program in any manner prohibited above.
 ---------------------------------------------------------------
  

 Cite this work as:
 Gaussian 16, Revision C.01,
 M. J. Frisch, G. W. Trucks, H. B. Schlegel, G. E. Scuseria, 
 M. A. Robb, J. R. Cheeseman, G. Scalmani, V. Barone, 
 G. A. Petersson, H. Nakatsuji, X. Li, M. Caricato, A. V. Marenich, 
 J. Bloino, B. G. Janesko, R. Gomperts, B. Mennucci, H. P. Hratchian, 
 J. V. Ortiz, A. F. Izmaylov, J. L. Sonnenberg, D. Williams-Young, 
 F. Ding, F. Lipparini, F. Egidi, J. Goings, B. Peng, A. Petrone, 
 T. Henderson, D. Ranasinghe, V. G. Zakrzewski, J. Gao, N. Rega, 
 G. Zheng, W. Liang, M. Hada, M. Ehara, K. Toyota, R. Fukuda, 
 J. Hasegawa, M. Ishida, T. Nakajima, Y. Honda, O. Kitao, H. Nakai, 
 T. Vreven, K. Throssell, J. A. Montgomery, Jr., J. E. Peralta, 
 F. Ogliaro, M. J. Bearpark, J. J. Heyd, E. N. Brothers, K. N. Kudin, 
 V. N. Staroverov, T. A. Keith, R. Kobayashi, J. Normand, 
 K. Raghavachari, A. P. Rendell, J. C. Burant, S. S. Iyengar, 
 J. Tomasi, M. Cossi, J. M. Millam, M. Klene, C. Adamo, R. Cammi, 
 J. W. Ochterski, R. L. Martin, K. Morokuma, O. Farkas, 
 J. B. Foresman, and D. J. Fox, Gaussian, Inc., Wallingford CT, 2019.
 
 ******************************************
 Gaussian 16:  ES64L-G16RevC.01  3-Jul-2019
                29-Aug-2025 
 ******************************************
 %mem=12GB
 %NProcShared=6
 Will use up to    6 processors via shared memory.
 ----------------------------------------------------------------------
 #P wb97xd/def2svp # SCF=(xqc) # POpt=(CALCFC,TS,NOEIGEN,MAXCYCLES=60) 
 # int=ultrafine
 ----------------------------------------------------------------------
 1/5=1,6=60,10=4,11=1,26=4,38=1/1,3;
 2/12=2,17=6,18=5,29=3,40=1/2;
 3/5=43,7=101,11=2,25=1,30=1,71=2,74=-58,75=-5,140=1/1,2,3;
 4//1;
 5/5=2,8=3,13=1,38=5/2,8;
 8/6=4,10=90,11=11/1;
 11/6=1,8=1,9=11,15=111,16=1/1,2,10;
 10/6=1,13=1/2;
 6/7=2,8=2,9=2,10=2,28=1/1;
 7/10=1,25=1/1,2,3,16;
 1/5=1,6=60,10=4,11=1,26=4/3(2);
 2/29=3/2;
 99//99;
 2/29=3/2;
 3/5=43,7=101,11=2,25=1,30=1,71=1,74=-58,75=-5/1,2,3;
 4/5=5,16=3,69=1/1;
 5/5=2,8=3,13=1,38=5/2,8;
 7//1,2,3,16;
 1/5=1,6=60,11=1,26=4/3(-5);
 2/29=3/2;
 6/7=2,8=2,9=2,10=2,19=2,28=1/1;
 99/9=1/99;
 Leave Link    1 at Fri Aug 29 11:59:26 2025, MaxMem=  1610612736 cpu:               0.3 elap:               0.1
 (Enter /apps/eb/gaussian/16-AVX2/g16/l101.exe)
 --------
 comment:
 --------
 Symbolic Z-matrix:
 Charge =  0 Multiplicity = 2
 C
 C                    1    R1
 H                    1    R2       2    A2
 C                    2    R3       1    A3       3    D3       0
 H                    2    R4       1    A4       4    D4       0
 C                    4    R5       2    A5       1    D5       0
 H                    4    R6       2    A6       6    D6       0
 H                    4    R7       2    A7       6    D7       0
 C                    6    R8       4    A8       2    D8       0
 H                    6    R9       4    A9       9    D9       0
 H                    6    R10      4    A10      9    D10      0
 H                    9    R11      6    A11      4    D11      0
 H                    9    R12      6    A12      12   D12      0
 O                    1    R13      2    A13      3    D13      0
 H                    14   R14      1    A14      2    D14      0
       Variables:
  R1                    1.34753                  
  R2                    1.08098                  
  R3                    1.50249                  
  R4                    1.08303                  
  R5                    1.54458                  
  R6                    1.09692                  
  R7                    1.09184                  
  R8                    1.54286                  
  R9                    1.09018                  
  R10                   1.08907                  
  R11                   1.09597                  
  R12                   1.08989                  
  R13                   2.14781                  
  R14                   0.96692                  
  A2                  124.79846                  
  A3                  111.81186                  
  A4                  124.63472                  
  A5                  103.20889                  
  A6                  109.59316                  
  A7                  112.60862                  
  A8                  105.34422                  
  A9                  112.55001                  
  A10                 108.93393                  
  A11                 111.85424                  
  A12                 112.78919                  
  A13                  87.40502                  
  A14                  99.80997                  
  D3                  186.55647                  
  D4                  178.39336                  
  D5                  349.08801                  
  D6                  119.39522                  
  D7                  238.26132                  
  D8                   20.7455                   
  D9                  123.14492                  
  D10                 243.39399                  
  D11                  94.41571                  
  D12                 121.64363                  
  D13                 264.79312                  
  D14                  62.91865                  
 
 ITRead=  0  0  0  0  0  0  0  0  0  0  0  0  0  0  0
 MicOpt= -1 -1 -1 -1 -1 -1 -1 -1 -1 -1 -1 -1 -1 -1 -1
 NAtoms=     15 NQM=       15 NQMF=       0 NMMI=      0 NMMIF=      0
                NMic=       0 NMicF=      0.
                    Isotopes and Nuclear Properties:
 (Nuclear quadrupole moments (NQMom) in fm**2, nuclear magnetic moments (NMagM)
  in nuclear magnetons)

  Atom         1           2           3           4           5           6           7           8           9          10
 IAtWgt=          12          12           1          12           1          12           1           1          12           1
 AtmWgt=  12.0000000  12.0000000   1.0078250  12.0000000   1.0078250  12.0000000   1.0078250   1.0078250  12.0000000   1.0078250
 NucSpn=           0           0           1           0           1           0           1           1           0           1
 AtZEff=  -0.0000000  -0.0000000  -0.0000000  -0.0000000  -0.0000000  -0.0000000  -0.0000000  -0.0000000  -0.0000000  -0.0000000
 NQMom=    0.0000000   0.0000000   0.0000000   0.0000000   0.0000000   0.0000000   0.0000000   0.0000000   0.0000000   0.0000000
 NMagM=    0.0000000   0.0000000   2.7928460   0.0000000   2.7928460   0.0000000   2.7928460   2.7928460   0.0000000   2.7928460
 AtZNuc=   6.0000000   6.0000000   1.0000000   6.0000000   1.0000000   6.0000000   1.0000000   1.0000000   6.0000000   1.0000000

  Atom        11          12          13          14          15
 IAtWgt=           1           1           1          16           1
 AtmWgt=   1.0078250   1.0078250   1.0078250  15.9949146   1.0078250
 NucSpn=           1           1           1           0           1
 AtZEff=  -0.0000000  -0.0000000  -0.0000000  -0.0000000  -0.0000000
 NQMom=    0.0000000   0.0000000   0.0000000   0.0000000   0.0000000
 NMagM=    2.7928460   2.7928460   2.7928460   0.0000000   2.7928460
 AtZNuc=   1.0000000   1.0000000   1.0000000   8.0000000   1.0000000
 Leave Link  101 at Fri Aug 29 11:59:26 2025, MaxMem=  1610612736 cpu:               0.3 elap:               0.1
 (Enter /apps/eb/gaussian/16-AVX2/g16/l103.exe)

 GradGradGradGradGradGradGradGradGradGradGradGradGradGradGradGradGradGrad
 Berny optimization.
 Initialization pass.
                       ----------------------------
                       !    Initial Parameters    !
                       ! (Angstroms and Degrees)  !
 ----------------------                            ----------------------
 !      Name          Value   Derivative information (Atomic Units)     !
 ------------------------------------------------------------------------
 !       R1          1.3475   calculate D2E/DX2 analytically            !
 !       R2          1.081    calculate D2E/DX2 analytically            !
 !       R3          1.5025   calculate D2E/DX2 analytically            !
 !       R4          1.083    calculate D2E/DX2 analytically            !
 !       R5          1.5446   calculate D2E/DX2 analytically            !
 !       R6          1.0969   calculate D2E/DX2 analytically            !
 !       R7          1.0918   calculate D2E/DX2 analytically            !
 !       R8          1.5429   calculate D2E/DX2 analytically            !
 !       R9          1.0902   calculate D2E/DX2 analytically            !
 !       R10         1.0891   calculate D2E/DX2 analytically            !
 !       R11         1.096    calculate D2E/DX2 analytically            !
 !       R12         1.0899   calculate D2E/DX2 analytically            !
 !       R13         2.1478   calculate D2E/DX2 analytically            !
 !       R14         0.9669   calculate D2E/DX2 analytically            !
 !       A2        124.7985   calculate D2E/DX2 analytically            !
 !       A3        111.8119   calculate D2E/DX2 analytically            !
 !       A4        124.6347   calculate D2E/DX2 analytically            !
 !       A5        103.2089   calculate D2E/DX2 analytically            !
 !       A6        109.5932   calculate D2E/DX2 analytically            !
 !       A7        112.6086   calculate D2E/DX2 analytically            !
 !       A8        105.3442   calculate D2E/DX2 analytically            !
 !       A9        112.55     calculate D2E/DX2 analytically            !
 !       A10       108.9339   calculate D2E/DX2 analytically            !
 !       A11       111.8542   calculate D2E/DX2 analytically            !
 !       A12       112.7892   calculate D2E/DX2 analytically            !
 !       A13        87.405    calculate D2E/DX2 analytically            !
 !       A14        99.81     calculate D2E/DX2 analytically            !
 !       D3        186.5565   calculate D2E/DX2 analytically            !
 !       D4        178.3934   calculate D2E/DX2 analytically            !
 !       D5        349.088    calculate D2E/DX2 analytically            !
 !       D6        119.3952   calculate D2E/DX2 analytically            !
 !       D7        238.2613   calculate D2E/DX2 analytically            !
 !       D8         20.7455   calculate D2E/DX2 analytically            !
 !       D9        123.1449   calculate D2E/DX2 analytically            !
 !       D10       243.394    calculate D2E/DX2 analytically            !
 !       D11        94.4157   calculate D2E/DX2 analytically            !
 !       D12       121.6436   calculate D2E/DX2 analytically            !
 !       D13       264.7931   calculate D2E/DX2 analytically            !
 !       D14        62.9186   calculate D2E/DX2 analytically            !
 ------------------------------------------------------------------------
 Trust Radius=3.00D-01 FncErr=1.00D-07 GrdErr=1.00D-06 EigMax=2.50D+02 EigMin=1.00D-04
 Number of steps in this run=     60 maximum allowed number of steps=    100.
 Search for a saddle point of order  1.
 GradGradGradGradGradGradGradGradGradGradGradGradGradGradGradGradGradGrad

 Leave Link  103 at Fri Aug 29 11:59:26 2025, MaxMem=  1610612736 cpu:               0.0 elap:               0.0
 (Enter /apps/eb/gaussian/16-AVX2/g16/l202.exe)
 ---------------------------------------------------------------------------------------------------
                            Z-MATRIX (ANGSTROMS AND DEGREES)
   CD    Cent   Atom    N1       Length/X        N2       Alpha/Y        N3        Beta/Z          J
 ---------------------------------------------------------------------------------------------------
      1      1  C 
      2      2  C        1   1.347529(     1)
      3      3  H        1   1.080981(     2)      2  124.798(    15)
      4      4  C        2   1.502488(     3)      1  111.812(    16)      3  186.556(    28)      0
      5      5  H        2   1.083033(     4)      1  124.635(    17)      4  178.393(    29)      0
      6      6  C        4   1.544581(     5)      2  103.209(    18)      1  349.088(    30)      0
      7      7  H        4   1.096919(     6)      2  109.593(    19)      6  119.395(    31)      0
      8      8  H        4   1.091843(     7)      2  112.609(    20)      6  238.261(    32)      0
      9      9  C        6   1.542863(     8)      4  105.344(    21)      2   20.745(    33)      0
     10     10  H        6   1.090179(     9)      4  112.550(    22)      9  123.145(    34)      0
     11     11  H        6   1.089069(    10)      4  108.934(    23)      9  243.394(    35)      0
     12     12  H        9   1.095969(    11)      6  111.854(    24)      4   94.416(    36)      0
     13     13  H        9   1.089888(    12)      6  112.789(    25)     12  121.644(    37)      0
     14     14  O        1   2.147811(    13)      2   87.405(    26)      3  264.793(    38)      0
     15     15  H       14   0.966923(    14)      1   99.810(    27)      2   62.919(    39)      0
 ---------------------------------------------------------------------------------------------------
                         Z-Matrix orientation:                         
 ---------------------------------------------------------------------
 Center     Atomic      Atomic             Coordinates (Angstroms)
 Number     Number       Type             X           Y           Z
 ---------------------------------------------------------------------
      1          6           0        0.000000    0.000000    0.000000
      2          6           0        0.000000    0.000000    1.347529
      3          1           0        0.887663    0.000000   -0.616907
      4          6           0       -1.385800   -0.159276    1.905793
      5          1           0        0.887788    0.076888    1.963063
      6          6           0       -2.288863    0.023461    0.666110
      7          1           0       -1.492229   -1.158058    2.346631
      8          1           0       -1.605511    0.561689    2.695767
      9          6           0       -1.378027   -0.256441   -0.547340
     10          1           0       -3.167234   -0.621819    0.689956
     11          1           0       -2.623976    1.058774    0.622547
     12          1           0       -1.448335   -1.298848   -0.878388
     13          1           0       -1.606495    0.379686   -1.402326
     14          8           0       -0.194718    2.136755    0.097243
     15          1           0        0.636950    2.358081    0.538017
 ---------------------------------------------------------------------
                    Distance matrix (angstroms):
                    1          2          3          4          5
     1  C    0.000000
     2  C    1.347529   0.000000
     3  H    1.080981   2.155679   0.000000
     4  C    2.361749   1.502488   3.399709   0.000000
     5  H    2.155851   1.083033   2.581115   2.286538   0.000000
     6  C    2.383935   2.388258   3.425931   1.544581   3.431625
     7  H    3.012395   2.136832   3.973354   1.096919   2.708634
     8  H    3.187526   2.170462   4.183924   1.091843   2.643563
     9  C    1.504760   2.356958   2.281218   2.455069   3.398109
    10  H    3.300617   3.294000   4.305432   2.205836   4.307226
    11  H    2.897208   2.920933   3.871545   2.159501   3.885044
    12  H    2.134536   2.956245   2.685566   3.009020   3.927335
    13  H    2.165988   3.207287   2.642323   3.358994   4.199878
    14  O    2.147811   2.483314   2.499456   3.156150   2.982642
    15  H    2.501143   2.573240   2.637661   3.507052   2.701391
                    6          7          8          9         10
     6  C    0.000000
     7  H    2.203353   0.000000
     8  H    2.208205   1.758482   0.000000
     9  C    1.542863   3.033319   3.352436   0.000000
    10  H    1.090179   2.416147   2.804095   2.205825   0.000000
    11  H    1.089069   3.027814   2.362755   2.156574   1.767502
    12  H    2.200105   3.228389   4.032479   1.095969   2.423362
    13  H    2.207023   4.053688   4.102133   1.089888   2.795812
    14  O    3.029037   4.195125   3.350149   2.746469   4.098400
    15  H    3.745296   4.490849   3.593263   3.474746   4.834740
                   11         12         13         14         15
    11  H    0.000000
    12  H    3.032048   0.000000
    13  H    2.365700   1.765503   0.000000
    14  O    2.709111   3.785073   2.707233   0.000000
    15  H    3.511266   4.441593   3.565393   0.966923   0.000000
 Stoichiometry    C5H9O(2)
 Framework group  C1[X(C5H9O)]
 Deg. of freedom    39
 Full point group                 C1      NOp   1
 Largest Abelian subgroup         C1      NOp   1
 Largest concise Abelian subgroup C1      NOp   1
                         Standard orientation:                         
 ---------------------------------------------------------------------
 Center     Atomic      Atomic             Coordinates (Angstroms)
 Number     Number       Type             X           Y           Z
 ---------------------------------------------------------------------
      1          6           0        0.577949   -0.191246    0.923064
      2          6           0        0.126952    1.042715    0.623435
      3          1           0        1.395371   -0.402234    1.598211
      4          6           0       -1.116214    0.993455   -0.218933
      5          1           0        0.581469    1.964177    0.965900
      6          6           0       -1.205248   -0.492716   -0.630150
      7          1           0       -1.979860    1.304967    0.381322
      8          1           0       -1.067787    1.665151   -1.078351
      9          6           0       -0.352377   -1.254670    0.405448
     10          1           0       -2.233112   -0.853235   -0.674991
     11          1           0       -0.754951   -0.614666   -1.614240
     12          1           0       -0.960903   -1.637761    1.232543
     13          1           0        0.185960   -2.097014   -0.028723
     14          8           0        1.786677   -0.073429   -0.848429
     15          1           0        2.354025    0.672819   -0.611426
 ---------------------------------------------------------------------
 Rotational constants (GHZ):           4.6870765           3.3210805           2.9163304
 Leave Link  202 at Fri Aug 29 11:59:26 2025, MaxMem=  1610612736 cpu:               0.0 elap:               0.0
 (Enter /apps/eb/gaussian/16-AVX2/g16/l301.exe)
 Standard basis: def2SVP (5D, 7F)
 Ernie: Thresh=  0.10000D-02 Tol=  0.10000D-05 Strict=F.
 There are   135 symmetry adapted cartesian basis functions of A   symmetry.
 There are   129 symmetry adapted basis functions of A   symmetry.
   129 basis functions,   213 primitive gaussians,   135 cartesian basis functions
    24 alpha electrons       23 beta electrons
       nuclear repulsion energy       240.7329632776 Hartrees.
 IExCor= 4639 DFT=T Ex+Corr=wB97XD ExCW=0 ScaHFX=  1.000000
 ScaDFX=  1.000000  1.000000  1.000000  1.000000 ScalE2=  1.000000  1.000000
 IRadAn=      5 IRanWt=     -1 IRanGd=            0 ICorTp=0 IEmpDi=121
 HFx  wShort=  0.000000 wLong=  0.200000 cFull=  0.222036 cShort=  0.000000 cLong=  0.777964
 DFx  wShort=  0.000000 wLong=  0.200000 cFull=  0.000000 cShort=  0.000000 cLong=  1.000000
 NAtoms=   15 NActive=   15 NUniq=   15 SFac= 1.00D+00 NAtFMM=   60 NAOKFM=F Big=F
 Integral buffers will be    131072 words long.
 Raffenetti 2 integral format.
 Two-electron integral symmetry is turned on.
 R6Disp:  Grimme-D2 Dispersion energy=       -0.0078068134 Hartrees.
 Nuclear repulsion after empirical dispersion term =      240.7251564642 Hartrees.
 Leave Link  301 at Fri Aug 29 11:59:26 2025, MaxMem=  1610612736 cpu:               0.2 elap:               0.0
 (Enter /apps/eb/gaussian/16-AVX2/g16/l302.exe)
 NPDir=0 NMtPBC=     1 NCelOv=     1 NCel=       1 NClECP=     1 NCelD=      1
         NCelK=      1 NCelE2=     1 NClLst=     1 CellRange=     0.0.
 One-electron integrals computed using PRISM.
 One-electron integral symmetry used in STVInt
   1 Symmetry operations used in ECPInt.
 ECPInt:  NShTT=    2016 NPrTT=    7008 LenC2=    2014 LenP2D=    6029.
 LDataN:  DoStor=T MaxTD1= 4 Len=   56
 NBasis=   129 RedAO= T EigKep=  9.08D-04  NBF=   129
 NBsUse=   129 1.00D-06 EigRej= -1.00D+00 NBFU=   129
 Precomputing XC quadrature grid using
 IXCGrd= 4 IRadAn=           5 IRanWt=          -1 IRanGd=           0 AccXCQ= 0.00D+00.
 Generated NRdTot=       0 NPtTot=           0 NUsed=           0 NTot=          32
 NSgBfM=   135   135   135   135   135 MxSgAt=    15 MxSgA2=    15.
 Leave Link  302 at Fri Aug 29 11:59:26 2025, MaxMem=  1610612736 cpu:               0.6 elap:               0.1
 (Enter /apps/eb/gaussian/16-AVX2/g16/l303.exe)
 DipDrv:  MaxL=1.
 Leave Link  303 at Fri Aug 29 11:59:26 2025, MaxMem=  1610612736 cpu:               0.1 elap:               0.0
 (Enter /apps/eb/gaussian/16-AVX2/g16/l401.exe)
 ExpMin= 1.22D-01 ExpMax= 2.27D+03 ExpMxC= 3.41D+02 IAcc=3 IRadAn=         5 AccDes= 0.00D+00
 Harris functional with IExCor= 4639 and IRadAn=       5 diagonalized for initial guess.
 HarFok:  IExCor= 4639 AccDes= 0.00D+00 IRadAn=         5 IDoV= 1 UseB2=F ITyADJ=14
 ICtDFT=  3500011 ScaDFX=  1.000000  1.000000  1.000000  1.000000
 FoFCou: FMM=F IPFlag=           0 FMFlag=      100000 FMFlg1=           0
         NFxFlg=           0 DoJE=T BraDBF=F KetDBF=T FulRan=T
         wScrn=  0.000000 ICntrl=       500 IOpCl=  0 I1Cent=   200000004 NGrid=           0
         NMat0=    1 NMatS0=      1 NMatT0=    0 NMatD0=    1 NMtDS0=    0 NMtDT0=    0
 Petite list used in FoFCou.
 Harris En= -258.654679216183    
 JPrj=0 DoOrth=F DoCkMO=F.
 Initial guess <Sx>= 0.0000 <Sy>= 0.0000 <Sz>= 0.5000 <S**2>= 0.7500 S= 0.5000
 Leave Link  401 at Fri Aug 29 11:59:27 2025, MaxMem=  1610612736 cpu:               2.3 elap:               0.4
 (Enter /apps/eb/gaussian/16-AVX2/g16/l502.exe)
 Keep R1 and R2 ints in memory in canonical form, NReq=147494257.
 FoFCou: FMM=F IPFlag=           0 FMFlag=           0 FMFlg1=           0
         NFxFlg=           0 DoJE=F BraDBF=F KetDBF=F FulRan=T
         wScrn=  0.000000 ICntrl=       600 IOpCl=  0 I1Cent=           0 NGrid=           0
         NMat0=    1 NMatS0=   8385 NMatT0=    0 NMatD0=    1 NMtDS0=    0 NMtDT0=    0
 Symmetry not used in FoFCou.
 Two-electron integral symmetry not used.
 UHF open shell SCF:
 Using DIIS extrapolation, IDIIS=  1040.
 NGot=  1610612736 LenX=  1469940278 LenY=  1469921612
 Requested convergence on RMS density matrix=1.00D-08 within  32 cycles.
 Requested convergence on MAX density matrix=1.00D-06.
 Requested convergence on             energy=1.00D-06.
 No special actions if energy rises.
 Integral accuracy reduced to 1.0D-05 until final iterations.

 Cycle   1  Pass 0  IDiag  1:
 E= -270.734936984085    
 DIIS: error= 3.63D-02 at cycle   1 NSaved=   1.
 NSaved= 1 IEnMin= 1 EnMin= -270.734936984085     IErMin= 1 ErrMin= 3.63D-02
 ErrMax= 3.63D-02  0.00D+00 EMaxC= 1.00D-01 BMatC= 4.44D-01 BMatP= 4.44D-01
 IDIUse=3 WtCom= 6.37D-01 WtEn= 3.63D-01
 Coeff-Com:  0.100D+01
 Coeff-En:   0.100D+01
 Coeff:      0.100D+01
 Gap=     0.404 Goal=   None    Shift=    0.000
 Gap=     0.318 Goal=   None    Shift=    0.000
 GapD=    0.318 DampG=1.000 DampE=0.500 DampFc=0.5000 IDamp=-1.
 Damping current iteration by 5.00D-01
 RMSDP=3.32D-03 MaxDP=7.42D-02              OVMax= 5.91D-02

 Cycle   2  Pass 0  IDiag  1:
 E= -270.755617150083     Delta-E=       -0.020680165998 Rises=F Damp=T
 DIIS: error= 1.97D-02 at cycle   2 NSaved=   2.
 NSaved= 2 IEnMin= 2 EnMin= -270.755617150083     IErMin= 2 ErrMin= 1.97D-02
 ErrMax= 1.97D-02  0.00D+00 EMaxC= 1.00D-01 BMatC= 9.87D-02 BMatP= 4.44D-01
 IDIUse=3 WtCom= 8.03D-01 WtEn= 1.97D-01
 Coeff-Com: -0.578D+00 0.158D+01
 Coeff-En:   0.000D+00 0.100D+01
 Coeff:     -0.464D+00 0.146D+01
 Gap=     0.375 Goal=   None    Shift=    0.000
 Gap=     0.324 Goal=   None    Shift=    0.000
 RMSDP=1.78D-03 MaxDP=3.40D-02 DE=-2.07D-02 OVMax= 1.22D-01

 Cycle   3  Pass 0  IDiag  1:
 E= -270.772929632732     Delta-E=       -0.017312482649 Rises=F Damp=F
 DIIS: error= 1.23D-02 at cycle   3 NSaved=   3.
 NSaved= 3 IEnMin= 3 EnMin= -270.772929632732     IErMin= 3 ErrMin= 1.23D-02
 ErrMax= 1.23D-02  0.00D+00 EMaxC= 1.00D-01 BMatC= 3.62D-02 BMatP= 9.87D-02
 IDIUse=3 WtCom= 8.77D-01 WtEn= 1.23D-01
 Coeff-Com: -0.403D+00 0.815D+00 0.588D+00
 Coeff-En:   0.000D+00 0.000D+00 0.100D+01
 Coeff:     -0.353D+00 0.715D+00 0.639D+00
 Gap=     0.394 Goal=   None    Shift=    0.000
 Gap=     0.317 Goal=   None    Shift=    0.000
 RMSDP=9.10D-04 MaxDP=2.64D-02 DE=-1.73D-02 OVMax= 3.37D-02

 Cycle   4  Pass 0  IDiag  1:
 E= -270.780112233762     Delta-E=       -0.007182601029 Rises=F Damp=F
 DIIS: error= 2.59D-03 at cycle   4 NSaved=   4.
 NSaved= 4 IEnMin= 4 EnMin= -270.780112233762     IErMin= 4 ErrMin= 2.59D-03
 ErrMax= 2.59D-03  0.00D+00 EMaxC= 1.00D-01 BMatC= 2.09D-03 BMatP= 3.62D-02
 IDIUse=3 WtCom= 9.74D-01 WtEn= 2.59D-02
 Coeff-Com: -0.114D+00 0.220D+00 0.262D+00 0.633D+00
 Coeff-En:   0.000D+00 0.000D+00 0.000D+00 0.100D+01
 Coeff:     -0.111D+00 0.214D+00 0.255D+00 0.642D+00
 Gap=     0.383 Goal=   None    Shift=    0.000
 Gap=     0.314 Goal=   None    Shift=    0.000
 RMSDP=2.16D-04 MaxDP=7.97D-03 DE=-7.18D-03 OVMax= 2.45D-02

 Cycle   5  Pass 0  IDiag  1:
 E= -270.780864192405     Delta-E=       -0.000751958643 Rises=F Damp=F
 DIIS: error= 1.23D-03 at cycle   5 NSaved=   5.
 NSaved= 5 IEnMin= 5 EnMin= -270.780864192405     IErMin= 5 ErrMin= 1.23D-03
 ErrMax= 1.23D-03  0.00D+00 EMaxC= 1.00D-01 BMatC= 4.07D-04 BMatP= 2.09D-03
 IDIUse=3 WtCom= 9.88D-01 WtEn= 1.23D-02
 Coeff-Com:  0.102D+00-0.207D+00-0.207D+00 0.686D-01 0.124D+01
 Coeff-En:   0.000D+00 0.000D+00 0.000D+00 0.000D+00 0.100D+01
 Coeff:      0.101D+00-0.204D+00-0.205D+00 0.678D-01 0.124D+01
 Gap=     0.386 Goal=   None    Shift=    0.000
 Gap=     0.320 Goal=   None    Shift=    0.000
 RMSDP=2.56D-04 MaxDP=5.72D-03 DE=-7.52D-04 OVMax= 1.93D-02

 Cycle   6  Pass 0  IDiag  1:
 E= -270.781227298394     Delta-E=       -0.000363105989 Rises=F Damp=F
 DIIS: error= 3.65D-04 at cycle   6 NSaved=   6.
 NSaved= 6 IEnMin= 6 EnMin= -270.781227298394     IErMin= 6 ErrMin= 3.65D-04
 ErrMax= 3.65D-04  0.00D+00 EMaxC= 1.00D-01 BMatC= 5.77D-05 BMatP= 4.07D-04
 IDIUse=3 WtCom= 9.96D-01 WtEn= 3.65D-03
 Coeff-Com:  0.391D-01-0.758D-01-0.102D+00-0.898D-01 0.140D+00 0.109D+01
 Coeff-En:   0.000D+00 0.000D+00 0.000D+00 0.000D+00 0.000D+00 0.100D+01
 Coeff:      0.390D-01-0.755D-01-0.101D+00-0.894D-01 0.140D+00 0.109D+01
 Gap=     0.388 Goal=   None    Shift=    0.000
 Gap=     0.322 Goal=   None    Shift=    0.000
 RMSDP=1.33D-04 MaxDP=2.94D-03 DE=-3.63D-04 OVMax= 1.01D-02

 Cycle   7  Pass 0  IDiag  1:
 E= -270.781300925079     Delta-E=       -0.000073626685 Rises=F Damp=F
 DIIS: error= 1.50D-04 at cycle   7 NSaved=   7.
 NSaved= 7 IEnMin= 7 EnMin= -270.781300925079     IErMin= 7 ErrMin= 1.50D-04
 ErrMax= 1.50D-04  0.00D+00 EMaxC= 1.00D-01 BMatC= 8.09D-06 BMatP= 5.77D-05
 IDIUse=3 WtCom= 9.99D-01 WtEn= 1.50D-03
 Coeff-Com: -0.140D-01 0.284D-01 0.218D-01-0.638D-02-0.213D+00 0.118D+00
 Coeff-Com:  0.107D+01
 Coeff-En:   0.000D+00 0.000D+00 0.000D+00 0.000D+00 0.000D+00 0.000D+00
 Coeff-En:   0.100D+01
 Coeff:     -0.140D-01 0.283D-01 0.218D-01-0.637D-02-0.213D+00 0.118D+00
 Coeff:      0.107D+01
 Gap=     0.388 Goal=   None    Shift=    0.000
 Gap=     0.322 Goal=   None    Shift=    0.000
 RMSDP=5.14D-05 MaxDP=1.33D-03 DE=-7.36D-05 OVMax= 4.24D-03

 Cycle   8  Pass 0  IDiag  1:
 E= -270.781310716912     Delta-E=       -0.000009791833 Rises=F Damp=F
 DIIS: error= 1.06D-04 at cycle   8 NSaved=   8.
 NSaved= 8 IEnMin= 8 EnMin= -270.781310716912     IErMin= 8 ErrMin= 1.06D-04
 ErrMax= 1.06D-04  0.00D+00 EMaxC= 1.00D-01 BMatC= 1.98D-06 BMatP= 8.09D-06
 IDIUse=3 WtCom= 9.99D-01 WtEn= 1.06D-03
 Coeff-Com: -0.116D-01 0.230D-01 0.234D-01 0.135D-01-0.107D+00-0.131D+00
 Coeff-Com:  0.402D+00 0.787D+00
 Coeff-En:   0.000D+00 0.000D+00 0.000D+00 0.000D+00 0.000D+00 0.000D+00
 Coeff-En:   0.000D+00 0.100D+01
 Coeff:     -0.116D-01 0.230D-01 0.234D-01 0.135D-01-0.107D+00-0.131D+00
 Coeff:      0.402D+00 0.787D+00
 Gap=     0.388 Goal=   None    Shift=    0.000
 Gap=     0.322 Goal=   None    Shift=    0.000
 RMSDP=1.68D-05 MaxDP=5.89D-04 DE=-9.79D-06 OVMax= 1.65D-03

 Cycle   9  Pass 0  IDiag  1:
 E= -270.781312475443     Delta-E=       -0.000001758532 Rises=F Damp=F
 DIIS: error= 8.83D-05 at cycle   9 NSaved=   9.
 NSaved= 9 IEnMin= 9 EnMin= -270.781312475443     IErMin= 9 ErrMin= 8.83D-05
 ErrMax= 8.83D-05  0.00D+00 EMaxC= 1.00D-01 BMatC= 3.92D-07 BMatP= 1.98D-06
 IDIUse=1 WtCom= 1.00D+00 WtEn= 0.00D+00
 Coeff-Com:  0.230D-03-0.527D-03 0.251D-03 0.428D-02 0.175D-01-0.434D-01
 Coeff-Com: -0.109D+00 0.126D+00 0.101D+01
 Coeff:      0.230D-03-0.527D-03 0.251D-03 0.428D-02 0.175D-01-0.434D-01
 Coeff:     -0.109D+00 0.126D+00 0.101D+01
 Gap=     0.388 Goal=   None    Shift=    0.000
 Gap=     0.322 Goal=   None    Shift=    0.000
 RMSDP=8.48D-06 MaxDP=4.64D-04 DE=-1.76D-06 OVMax= 1.04D-03

 Initial convergence to 1.0D-05 achieved.  Increase integral accuracy.
 Cycle  10  Pass 1  IDiag  1:
 E= -270.781312554096     Delta-E=       -0.000000078653 Rises=F Damp=F
 DIIS: error= 7.04D-05 at cycle   1 NSaved=   1.
 NSaved= 1 IEnMin= 1 EnMin= -270.781312554096     IErMin= 1 ErrMin= 7.04D-05
 ErrMax= 7.04D-05  0.00D+00 EMaxC= 1.00D-01 BMatC= 5.27D-07 BMatP= 5.27D-07
 IDIUse=1 WtCom= 1.00D+00 WtEn= 0.00D+00
 Coeff-Com:  0.100D+01
 Coeff:      0.100D+01
 Gap=     0.388 Goal=   None    Shift=    0.000
 Gap=     0.322 Goal=   None    Shift=    0.000
 RMSDP=8.48D-06 MaxDP=4.64D-04 DE=-7.87D-08 OVMax= 5.89D-04

 Cycle  11  Pass 1  IDiag  1:
 E= -270.781313034030     Delta-E=       -0.000000479934 Rises=F Damp=F
 DIIS: error= 5.67D-05 at cycle   2 NSaved=   2.
 NSaved= 2 IEnMin= 2 EnMin= -270.781313034030     IErMin= 2 ErrMin= 5.67D-05
 ErrMax= 5.67D-05  0.00D+00 EMaxC= 1.00D-01 BMatC= 1.42D-07 BMatP= 5.27D-07
 IDIUse=1 WtCom= 1.00D+00 WtEn= 0.00D+00
 Coeff-Com: -0.940D-01 0.109D+01
 Coeff:     -0.940D-01 0.109D+01
 Gap=     0.388 Goal=   None    Shift=    0.000
 Gap=     0.323 Goal=   None    Shift=    0.000
 RMSDP=4.88D-06 MaxDP=2.66D-04 DE=-4.80D-07 OVMax= 5.19D-04

 Cycle  12  Pass 1  IDiag  1:
 E= -270.781313328476     Delta-E=       -0.000000294446 Rises=F Damp=F
 DIIS: error= 4.88D-05 at cycle   3 NSaved=   3.
 NSaved= 3 IEnMin= 3 EnMin= -270.781313328476     IErMin= 3 ErrMin= 4.88D-05
 ErrMax= 4.88D-05  0.00D+00 EMaxC= 1.00D-01 BMatC= 1.03D-07 BMatP= 1.42D-07
 IDIUse=1 WtCom= 1.00D+00 WtEn= 0.00D+00
 Coeff-Com: -0.149D+00 0.387D+00 0.762D+00
 Coeff:     -0.149D+00 0.387D+00 0.762D+00
 Gap=     0.388 Goal=   None    Shift=    0.000
 Gap=     0.323 Goal=   None    Shift=    0.000
 RMSDP=3.25D-06 MaxDP=1.54D-04 DE=-2.94D-07 OVMax= 3.68D-04

 Cycle  13  Pass 1  IDiag  1:
 E= -270.781313502747     Delta-E=       -0.000000174271 Rises=F Damp=F
 DIIS: error= 4.07D-05 at cycle   4 NSaved=   4.
 NSaved= 4 IEnMin= 4 EnMin= -270.781313502747     IErMin= 4 ErrMin= 4.07D-05
 ErrMax= 4.07D-05  0.00D+00 EMaxC= 1.00D-01 BMatC= 6.36D-08 BMatP= 1.03D-07
 IDIUse=1 WtCom= 1.00D+00 WtEn= 0.00D+00
 Coeff-Com:  0.179D+00-0.158D+01-0.314D+00 0.271D+01
 Coeff:      0.179D+00-0.158D+01-0.314D+00 0.271D+01
 Gap=     0.388 Goal=   None    Shift=    0.000
 Gap=     0.323 Goal=   None    Shift=    0.000
 RMSDP=1.23D-05 MaxDP=6.71D-04 DE=-1.74D-07 OVMax= 1.39D-03

 Cycle  14  Pass 1  IDiag  1:
 E= -270.781313917619     Delta-E=       -0.000000414872 Rises=F Damp=F
 DIIS: error= 1.69D-05 at cycle   5 NSaved=   5.
 NSaved= 5 IEnMin= 5 EnMin= -270.781313917619     IErMin= 5 ErrMin= 1.69D-05
 ErrMax= 1.69D-05  0.00D+00 EMaxC= 1.00D-01 BMatC= 1.77D-08 BMatP= 6.36D-08
 IDIUse=1 WtCom= 1.00D+00 WtEn= 0.00D+00
 Coeff-Com:  0.120D+00-0.745D+00-0.363D+00 0.116D+01 0.829D+00
 Coeff:      0.120D+00-0.745D+00-0.363D+00 0.116D+01 0.829D+00
 Gap=     0.388 Goal=   None    Shift=    0.000
 Gap=     0.323 Goal=   None    Shift=    0.000
 RMSDP=3.94D-06 MaxDP=2.04D-04 DE=-4.15D-07 OVMax= 4.33D-04

 Cycle  15  Pass 1  IDiag  1:
 E= -270.781313975541     Delta-E=       -0.000000057922 Rises=F Damp=F
 DIIS: error= 7.82D-06 at cycle   6 NSaved=   6.
 NSaved= 6 IEnMin= 6 EnMin= -270.781313975541     IErMin= 6 ErrMin= 7.82D-06
 ErrMax= 7.82D-06  0.00D+00 EMaxC= 1.00D-01 BMatC= 5.60D-09 BMatP= 1.77D-08
 IDIUse=1 WtCom= 1.00D+00 WtEn= 0.00D+00
 Coeff-Com: -0.327D-01 0.395D+00-0.331D-02-0.716D+00 0.197D+00 0.116D+01
 Coeff:     -0.327D-01 0.395D+00-0.331D-02-0.716D+00 0.197D+00 0.116D+01
 Gap=     0.388 Goal=   None    Shift=    0.000
 Gap=     0.323 Goal=   None    Shift=    0.000
 RMSDP=2.69D-06 MaxDP=1.42D-04 DE=-5.79D-08 OVMax= 3.07D-04

 Cycle  16  Pass 1  IDiag  1:
 E= -270.781313995830     Delta-E=       -0.000000020289 Rises=F Damp=F
 DIIS: error= 3.02D-06 at cycle   7 NSaved=   7.
 NSaved= 7 IEnMin= 7 EnMin= -270.781313995830     IErMin= 7 ErrMin= 3.02D-06
 ErrMax= 3.02D-06  0.00D+00 EMaxC= 1.00D-01 BMatC= 1.89D-09 BMatP= 5.60D-09
 IDIUse=1 WtCom= 1.00D+00 WtEn= 0.00D+00
 Coeff-Com: -0.442D-01 0.312D+00 0.129D+00-0.500D+00-0.273D+00 0.243D+00
 Coeff-Com:  0.113D+01
 Coeff:     -0.442D-01 0.312D+00 0.129D+00-0.500D+00-0.273D+00 0.243D+00
 Coeff:      0.113D+01
 Gap=     0.388 Goal=   None    Shift=    0.000
 Gap=     0.323 Goal=   None    Shift=    0.000
 RMSDP=1.10D-06 MaxDP=4.68D-05 DE=-2.03D-08 OVMax= 1.09D-04

 Cycle  17  Pass 1  IDiag  1:
 E= -270.781314000435     Delta-E=       -0.000000004605 Rises=F Damp=F
 DIIS: error= 1.08D-06 at cycle   8 NSaved=   8.
 NSaved= 8 IEnMin= 8 EnMin= -270.781314000435     IErMin= 8 ErrMin= 1.08D-06
 ErrMax= 1.08D-06  0.00D+00 EMaxC= 1.00D-01 BMatC= 5.16D-10 BMatP= 1.89D-09
 IDIUse=1 WtCom= 1.00D+00 WtEn= 0.00D+00
 Coeff-Com: -0.105D-02-0.493D-01 0.467D-01 0.940D-01-0.150D+00-0.308D+00
 Coeff-Com:  0.254D+00 0.111D+01
 Coeff:     -0.105D-02-0.493D-01 0.467D-01 0.940D-01-0.150D+00-0.308D+00
 Coeff:      0.254D+00 0.111D+01
 Gap=     0.388 Goal=   None    Shift=    0.000
 Gap=     0.323 Goal=   None    Shift=    0.000
 RMSDP=6.06D-07 MaxDP=2.30D-05 DE=-4.61D-09 OVMax= 5.26D-05

 Cycle  18  Pass 1  IDiag  1:
 E= -270.781314001731     Delta-E=       -0.000000001296 Rises=F Damp=F
 DIIS: error= 5.18D-07 at cycle   9 NSaved=   9.
 NSaved= 9 IEnMin= 9 EnMin= -270.781314001731     IErMin= 9 ErrMin= 5.18D-07
 ErrMax= 5.18D-07  0.00D+00 EMaxC= 1.00D-01 BMatC= 1.27D-10 BMatP= 5.16D-10
 IDIUse=1 WtCom= 1.00D+00 WtEn= 0.00D+00
 Coeff-Com:  0.112D-01-0.881D-01-0.149D-01 0.130D+00 0.588D-01-0.112D+00
 Coeff-Com: -0.293D+00 0.189D+00 0.112D+01
 Coeff:      0.112D-01-0.881D-01-0.149D-01 0.130D+00 0.588D-01-0.112D+00
 Coeff:     -0.293D+00 0.189D+00 0.112D+01
 Gap=     0.388 Goal=   None    Shift=    0.000
 Gap=     0.323 Goal=   None    Shift=    0.000
 RMSDP=2.49D-07 MaxDP=7.04D-06 DE=-1.30D-09 OVMax= 2.04D-05

 Cycle  19  Pass 1  IDiag  1:
 E= -270.781314001979     Delta-E=       -0.000000000249 Rises=F Damp=F
 DIIS: error= 2.79D-07 at cycle  10 NSaved=  10.
 NSaved=10 IEnMin=10 EnMin= -270.781314001979     IErMin=10 ErrMin= 2.79D-07
 ErrMax= 2.79D-07  0.00D+00 EMaxC= 1.00D-01 BMatC= 2.62D-11 BMatP= 1.27D-10
 IDIUse=1 WtCom= 1.00D+00 WtEn= 0.00D+00
 Coeff-Com:  0.142D-03 0.104D-01-0.168D-02-0.329D-01 0.434D-01 0.568D-01
 Coeff-Com: -0.562D-01-0.215D+00 0.176D-02 0.119D+01
 Coeff:      0.142D-03 0.104D-01-0.168D-02-0.329D-01 0.434D-01 0.568D-01
 Coeff:     -0.562D-01-0.215D+00 0.176D-02 0.119D+01
 Gap=     0.388 Goal=   None    Shift=    0.000
 Gap=     0.323 Goal=   None    Shift=    0.000
 RMSDP=1.00D-07 MaxDP=2.94D-06 DE=-2.49D-10 OVMax= 8.12D-06

 Cycle  20  Pass 1  IDiag  1:
 E= -270.781314002024     Delta-E=       -0.000000000045 Rises=F Damp=F
 DIIS: error= 1.75D-07 at cycle  11 NSaved=  11.
 NSaved=11 IEnMin=11 EnMin= -270.781314002024     IErMin=11 ErrMin= 1.75D-07
 ErrMax= 1.75D-07  0.00D+00 EMaxC= 1.00D-01 BMatC= 5.63D-12 BMatP= 2.62D-11
 IDIUse=1 WtCom= 1.00D+00 WtEn= 0.00D+00
 Coeff-Com: -0.261D-02 0.210D-01 0.738D-02-0.372D-01-0.592D-02 0.216D-01
 Coeff-Com:  0.637D-01-0.448D-01-0.250D+00-0.301D-01 0.126D+01
 Coeff:     -0.261D-02 0.210D-01 0.738D-02-0.372D-01-0.592D-02 0.216D-01
 Coeff:      0.637D-01-0.448D-01-0.250D+00-0.301D-01 0.126D+01
 Gap=     0.388 Goal=   None    Shift=    0.000
 Gap=     0.323 Goal=   None    Shift=    0.000
 RMSDP=4.91D-08 MaxDP=1.28D-06 DE=-4.48D-11 OVMax= 3.75D-06

 Cycle  21  Pass 1  IDiag  1:
 E= -270.781314002035     Delta-E=       -0.000000000011 Rises=F Damp=F
 DIIS: error= 5.34D-08 at cycle  12 NSaved=  12.
 NSaved=12 IEnMin=12 EnMin= -270.781314002035     IErMin=12 ErrMin= 5.34D-08
 ErrMax= 5.34D-08  0.00D+00 EMaxC= 1.00D-01 BMatC= 9.64D-13 BMatP= 5.63D-12
 IDIUse=1 WtCom= 1.00D+00 WtEn= 0.00D+00
 Coeff-Com: -0.233D-03 0.260D-03 0.220D-02-0.297D-03-0.424D-02-0.961D-02
 Coeff-Com:  0.117D-01 0.304D-01-0.646D-02-0.207D+00 0.102D+00 0.108D+01
 Coeff:     -0.233D-03 0.260D-03 0.220D-02-0.297D-03-0.424D-02-0.961D-02
 Coeff:      0.117D-01 0.304D-01-0.646D-02-0.207D+00 0.102D+00 0.108D+01
 Gap=     0.388 Goal=   None    Shift=    0.000
 Gap=     0.323 Goal=   None    Shift=    0.000
 RMSDP=1.66D-08 MaxDP=3.82D-07 DE=-1.11D-11 OVMax= 1.13D-06

 Cycle  22  Pass 1  IDiag  1:
 E= -270.781314002035     Delta-E=        0.000000000000 Rises=F Damp=F
 DIIS: error= 2.43D-08 at cycle  13 NSaved=  13.
 NSaved=13 IEnMin=12 EnMin= -270.781314002035     IErMin=13 ErrMin= 2.43D-08
 ErrMax= 2.43D-08  0.00D+00 EMaxC= 1.00D-01 BMatC= 1.82D-13 BMatP= 9.64D-13
 IDIUse=1 WtCom= 1.00D+00 WtEn= 0.00D+00
 Coeff-Com:  0.489D-03-0.427D-02-0.576D-03 0.692D-02 0.122D-02-0.775D-02
 Coeff-Com: -0.105D-01 0.166D-01 0.514D-01-0.453D-01-0.232D+00 0.243D+00
 Coeff-Com:  0.981D+00
 Coeff:      0.489D-03-0.427D-02-0.576D-03 0.692D-02 0.122D-02-0.775D-02
 Coeff:     -0.105D-01 0.166D-01 0.514D-01-0.453D-01-0.232D+00 0.243D+00
 Coeff:      0.981D+00
 Gap=     0.388 Goal=   None    Shift=    0.000
 Gap=     0.323 Goal=   None    Shift=    0.000
 RMSDP=6.64D-09 MaxDP=1.25D-07 DE= 3.41D-13 OVMax= 4.25D-07

 SCF Done:  E(UwB97XD) =  -270.781314002     A.U. after   22 cycles
            NFock= 22  Conv=0.66D-08     -V/T= 2.0102
 <Sx>= 0.0000 <Sy>= 0.0000 <Sz>= 0.5000 <S**2>= 0.7676 S= 0.5088
 <L.S>=  0.00000000000    
 KE= 2.680472067396D+02 PE=-1.111412691676D+03 EE= 3.318590144705D+02
 Annihilation of the first spin contaminant:
 S**2 before annihilation     0.7676,   after     0.7501
 Leave Link  502 at Fri Aug 29 11:59:37 2025, MaxMem=  1610612736 cpu:              56.0 elap:              10.2
 (Enter /apps/eb/gaussian/16-AVX2/g16/l508.exe)
 QCSCF skips out because SCF is already converged.
 Leave Link  508 at Fri Aug 29 11:59:37 2025, MaxMem=  1610612736 cpu:               0.0 elap:               0.0
 (Enter /apps/eb/gaussian/16-AVX2/g16/l801.exe)
 DoSCS=F DFT=T ScalE2(SS,OS)=  1.000000  1.000000
 Range of M.O.s used for correlation:     1   129
 NBasis=   129 NAE=    24 NBE=    23 NFC=     0 NFV=     0
 NROrb=    129 NOA=    24 NOB=    23 NVA=   105 NVB=   106
 Leave Link  801 at Fri Aug 29 11:59:37 2025, MaxMem=  1610612736 cpu:               0.1 elap:               0.0
 (Enter /apps/eb/gaussian/16-AVX2/g16/l1101.exe)
 Using compressed storage, NAtomX=    15.
 Will process     16 centers per pass.
   1 Symmetry operations used in ECPInt.
 ECPInt:  NShTT=    2016 NPrTT=    7008 LenC2=    2014 LenP2D=    6029.
 LDataN:  DoStor=T MaxTD1= 5 Len=  102
 R6Disp: Adding Grimme-D2 dispersion energy 1st derivatives to the gradient.
 Leave Link 1101 at Fri Aug 29 11:59:37 2025, MaxMem=  1610612736 cpu:               0.5 elap:               0.1
 (Enter /apps/eb/gaussian/16-AVX2/g16/l1102.exe)
 Symmetrizing basis deriv contribution to polar:
 IMax=3 JMax=2 DiffMx= 0.00D+00
 Leave Link 1102 at Fri Aug 29 11:59:37 2025, MaxMem=  1610612736 cpu:               0.1 elap:               0.0
 (Enter /apps/eb/gaussian/16-AVX2/g16/l1110.exe)
 Forming Gx(P) for the SCF density, NAtomX=    15.
 Integral derivatives from FoFJK, PRISM(SPDF).
 Do as many integral derivatives as possible in FoFJK.
 G2DrvN: MDV=    1610611055.
 G2DrvN: will do    16 centers at a time, making    1 passes.
 Calling FoFCou, ICntrl=  3107 FMM=F I1Cent=   0 AccDes= 0.00D+00.
 FoFJK:  IHMeth= 1 ICntrl=    3107 DoSepK=T KAlg= 0 I1Cent=           0 FoldK=F
 IRaf=         1 NMat=       1 IRICut=       1 DoRegI=T DoRafI=F ISym2E= 0 IDoP0=0 IntGTp=1.
 FoFCou: FMM=F IPFlag=           0 FMFlag=      100000 FMFlg1=           0
         NFxFlg=           0 DoJE=F BraDBF=F KetDBF=F FulRan=T
         wScrn=  0.000000 ICntrl=      3507 IOpCl=  0 I1Cent=           0 NGrid=           0
         NMat0=    1 NMatS0=      1 NMatT0=    0 NMatD0=    1 NMtDS0=    0 NMtDT0=    0
 Symmetry not used in FoFCou.
 End of G2Drv F.D. properties file   721 does not exist.
 End of G2Drv F.D. properties file   722 does not exist.
 End of G2Drv F.D. properties file   788 does not exist.
 Leave Link 1110 at Fri Aug 29 11:59:52 2025, MaxMem=  1610612736 cpu:              85.9 elap:              14.4
 (Enter /apps/eb/gaussian/16-AVX2/g16/l1002.exe)
 Minotr:  UHF open shell wavefunction.
          IDoAtm=111111111111111
          Direct CPHF calculation.
          Differentiating once with respect to nuclear coordinates.
          Requested convergence is 1.0D-08 RMS, and 1.0D-07 maximum.
          Secondary convergence is 1.0D-12 RMS, and 1.0D-12 maximum.
          NewPWx=T KeepS1=F KeepF1=F KeepIn=T MapXYZ=F SortEE=F KeepMc=T.
         4436 words used for storage of precomputed grid.
 Keep R1 and R2 ints in memory in canonical form, NReq=147489009.
 FoFCou: FMM=F IPFlag=           0 FMFlag=           0 FMFlg1=           0
         NFxFlg=           0 DoJE=F BraDBF=F KetDBF=F FulRan=T
         wScrn=  0.000000 ICntrl=       600 IOpCl=  0 I1Cent=           0 NGrid=           0
         NMat0=    1 NMatS0=   8385 NMatT0=    0 NMatD0=    1 NMtDS0=    0 NMtDT0=    0
 Symmetry not used in FoFCou.
 Two-electron integral symmetry not used.
          MDV=    1610612736 using IRadAn=       1.
          Solving linear equations simultaneously, MaxMat=       0.
          There are    48 degrees of freedom in the 1st order CPHF.  IDoFFX=6 NUNeed=     0.
     42 vectors produced by pass  0 Test12= 1.03D-14 2.08D-09 XBig12= 1.30D-01 9.75D-02.
 AX will form    42 AO Fock derivatives at one time.
     42 vectors produced by pass  1 Test12= 1.03D-14 2.08D-09 XBig12= 1.38D-02 2.77D-02.
     42 vectors produced by pass  2 Test12= 1.03D-14 2.08D-09 XBig12= 5.03D-04 4.59D-03.
     42 vectors produced by pass  3 Test12= 1.03D-14 2.08D-09 XBig12= 7.16D-06 3.68D-04.
     42 vectors produced by pass  4 Test12= 1.03D-14 2.08D-09 XBig12= 7.51D-08 2.99D-05.
     42 vectors produced by pass  5 Test12= 1.03D-14 2.08D-09 XBig12= 7.42D-10 3.45D-06.
     42 vectors produced by pass  6 Test12= 1.03D-14 2.08D-09 XBig12= 5.75D-12 2.93D-07.
     18 vectors produced by pass  7 Test12= 1.03D-14 2.08D-09 XBig12= 4.54D-14 2.58D-08.
      1 vectors produced by pass  8 Test12= 1.03D-14 2.08D-09 XBig12= 3.46D-16 2.22D-09.
 InvSVY:  IOpt=1 It=  1 EMax= 1.33D-15
 Solved reduced A of dimension   313 with    42 vectors.
 End of Minotr F.D. properties file   721 does not exist.
 End of Minotr F.D. properties file   722 does not exist.
 End of Minotr F.D. properties file   788 does not exist.
 Leave Link 1002 at Fri Aug 29 12:00:08 2025, MaxMem=  1610612736 cpu:              93.5 elap:              15.7
 (Enter /apps/eb/gaussian/16-AVX2/g16/l601.exe)
 Copying SCF densities to generalized density rwf, IOpCl= 1 IROHF=0.

 **********************************************************************

            Population analysis using the SCF Density.

 **********************************************************************

 Orbital symmetries:
 Alpha Orbitals:
       Occupied  (A) (A) (A) (A) (A) (A) (A) (A) (A) (A) (A) (A)
                 (A) (A) (A) (A) (A) (A) (A) (A) (A) (A) (A) (A)
       Virtual   (A) (A) (A) (A) (A) (A) (A) (A) (A) (A) (A) (A)
                 (A) (A) (A) (A) (A) (A) (A) (A) (A) (A) (A) (A)
                 (A) (A) (A) (A) (A) (A) (A) (A) (A) (A) (A) (A)
                 (A) (A) (A) (A) (A) (A) (A) (A) (A) (A) (A) (A)
                 (A) (A) (A) (A) (A) (A) (A) (A) (A) (A) (A) (A)
                 (A) (A) (A) (A) (A) (A) (A) (A) (A) (A) (A) (A)
                 (A) (A) (A) (A) (A) (A) (A) (A) (A) (A) (A) (A)
                 (A) (A) (A) (A) (A) (A) (A) (A) (A) (A) (A) (A)
                 (A) (A) (A) (A) (A) (A) (A) (A) (A)
 Beta  Orbitals:
       Occupied  (A) (A) (A) (A) (A) (A) (A) (A) (A) (A) (A) (A)
                 (A) (A) (A) (A) (A) (A) (A) (A) (A) (A) (A)
       Virtual   (A) (A) (A) (A) (A) (A) (A) (A) (A) (A) (A) (A)
                 (A) (A) (A) (A) (A) (A) (A) (A) (A) (A) (A) (A)
                 (A) (A) (A) (A) (A) (A) (A) (A) (A) (A) (A) (A)
                 (A) (A) (A) (A) (A) (A) (A) (A) (A) (A) (A) (A)
                 (A) (A) (A) (A) (A) (A) (A) (A) (A) (A) (A) (A)
                 (A) (A) (A) (A) (A) (A) (A) (A) (A) (A) (A) (A)
                 (A) (A) (A) (A) (A) (A) (A) (A) (A) (A) (A) (A)
                 (A) (A) (A) (A) (A) (A) (A) (A) (A) (A) (A) (A)
                 (A) (A) (A) (A) (A) (A) (A) (A) (A) (A)
 The electronic state is 2-A.
 Alpha  occ. eigenvalues --  -19.24461 -10.31843 -10.30901 -10.29615 -10.29254
 Alpha  occ. eigenvalues --  -10.28714  -1.03390  -0.94409  -0.80656  -0.80216
 Alpha  occ. eigenvalues --   -0.66468  -0.62667  -0.59678  -0.56443  -0.50382
 Alpha  occ. eigenvalues --   -0.47992  -0.47583  -0.44983  -0.44010  -0.43273
 Alpha  occ. eigenvalues --   -0.42417  -0.40896  -0.36246  -0.29887
 Alpha virt. eigenvalues --    0.08925   0.13683   0.16695   0.18365   0.19181
 Alpha virt. eigenvalues --    0.20466   0.21556   0.21779   0.23716   0.25705
 Alpha virt. eigenvalues --    0.27579   0.27785   0.34689   0.38869   0.45847
 Alpha virt. eigenvalues --    0.50786   0.51273   0.54470   0.56160   0.56992
 Alpha virt. eigenvalues --    0.58748   0.64132   0.66791   0.69503   0.70370
 Alpha virt. eigenvalues --    0.71045   0.72053   0.72344   0.74526   0.75380
 Alpha virt. eigenvalues --    0.76526   0.77588   0.77877   0.80037   0.80488
 Alpha virt. eigenvalues --    0.80796   0.82860   0.84738   0.88150   0.91074
 Alpha virt. eigenvalues --    0.97694   1.07512   1.09134   1.11751   1.21122
 Alpha virt. eigenvalues --    1.21456   1.24446   1.31540   1.33707   1.36717
 Alpha virt. eigenvalues --    1.44355   1.49227   1.55321   1.56184   1.61174
 Alpha virt. eigenvalues --    1.63620   1.69531   1.71119   1.77213   1.79863
 Alpha virt. eigenvalues --    1.80371   1.84320   1.85165   1.88307   1.88854
 Alpha virt. eigenvalues --    1.93609   1.94959   1.96062   1.99093   2.00374
 Alpha virt. eigenvalues --    2.02083   2.04040   2.05834   2.07304   2.11574
 Alpha virt. eigenvalues --    2.14462   2.20267   2.26668   2.29433   2.32372
 Alpha virt. eigenvalues --    2.37276   2.42699   2.43666   2.51524   2.52309
 Alpha virt. eigenvalues --    2.53776   2.60264   2.67365   2.72854   2.73158
 Alpha virt. eigenvalues --    2.77904   2.81858   2.85016   2.87351   2.89456
 Alpha virt. eigenvalues --    2.96102   3.03559   3.06061   3.08951   3.09404
 Alpha virt. eigenvalues --    3.10523   3.12844   3.17235   3.39862   3.84007
  Beta  occ. eigenvalues --  -19.22731 -10.31848 -10.30436 -10.29645 -10.29249
  Beta  occ. eigenvalues --  -10.28712  -0.98546  -0.93554  -0.80230  -0.79897
  Beta  occ. eigenvalues --   -0.66285  -0.62257  -0.59436  -0.55983  -0.49271
  Beta  occ. eigenvalues --   -0.47030  -0.46758  -0.43802  -0.43362  -0.42533
  Beta  occ. eigenvalues --   -0.42357  -0.34268  -0.33665
  Beta virt. eigenvalues --   -0.01390   0.10809   0.13855   0.16874   0.18448
  Beta virt. eigenvalues --    0.19243   0.20887   0.21762   0.21809   0.23755
  Beta virt. eigenvalues --    0.25891   0.27631   0.27841   0.34743   0.39104
  Beta virt. eigenvalues --    0.46049   0.51026   0.51719   0.54645   0.56508
  Beta virt. eigenvalues --    0.57185   0.58946   0.64732   0.67880   0.69808
  Beta virt. eigenvalues --    0.70536   0.71207   0.72511   0.72741   0.74785
  Beta virt. eigenvalues --    0.75524   0.76599   0.77794   0.77982   0.80077
  Beta virt. eigenvalues --    0.80770   0.80905   0.83357   0.85088   0.88528
  Beta virt. eigenvalues --    0.91675   0.98098   1.07686   1.12404   1.13067
  Beta virt. eigenvalues --    1.21480   1.22243   1.24685   1.32858   1.34382
  Beta virt. eigenvalues --    1.37078   1.44420   1.49428   1.56197   1.56497
  Beta virt. eigenvalues --    1.62303   1.64201   1.69791   1.71285   1.77577
  Beta virt. eigenvalues --    1.80027   1.80578   1.84479   1.85402   1.88444
  Beta virt. eigenvalues --    1.88936   1.93840   1.95069   1.96264   1.99637
  Beta virt. eigenvalues --    2.00686   2.02253   2.04224   2.06013   2.07810
  Beta virt. eigenvalues --    2.12171   2.14630   2.20449   2.27301   2.29683
  Beta virt. eigenvalues --    2.33748   2.37526   2.42760   2.43948   2.51696
  Beta virt. eigenvalues --    2.53179   2.54169   2.60735   2.67493   2.73003
  Beta virt. eigenvalues --    2.73423   2.79771   2.85425   2.86001   2.90110
  Beta virt. eigenvalues --    2.92060   2.96455   3.03696   3.08333   3.09951
  Beta virt. eigenvalues --    3.10593   3.10921   3.15228   3.17344   3.40201
  Beta virt. eigenvalues --    3.86107
          Condensed to atoms (all electrons):
               1          2          3          4          5          6
     1  C    4.924217   0.468080   0.423788  -0.009870  -0.048525  -0.064362
     2  C    0.468080   5.082035  -0.050183   0.298978   0.423491  -0.064789
     3  H    0.423788  -0.050183   0.626658   0.011295  -0.007658   0.005644
     4  C   -0.009870   0.298978   0.011295   4.730156  -0.044707   0.413951
     5  H   -0.048525   0.423491  -0.007658  -0.044707   0.635474   0.006371
     6  C   -0.064362  -0.064789   0.005644   0.413951   0.006371   4.671655
     7  H   -0.008290  -0.014718  -0.000340   0.362930   0.000210  -0.016899
     8  H    0.001101  -0.010816  -0.000299   0.372009  -0.002423  -0.015342
     9  C    0.337820  -0.034568  -0.037654  -0.119453   0.010438   0.416909
    10  H    0.006133   0.006940  -0.000274  -0.019845  -0.000282   0.375180
    11  H   -0.005621   0.000084  -0.000063  -0.012288  -0.000144   0.372844
    12  H   -0.020391  -0.006486  -0.000597   0.002855  -0.000297  -0.021049
    13  H   -0.005291   0.000277  -0.002378   0.008180  -0.000300  -0.015624
    14  O    0.053566   0.014334  -0.003608  -0.012014  -0.000857  -0.002045
    15  H   -0.007042   0.008681   0.000476  -0.000524   0.001151   0.000414
               7          8          9         10         11         12
     1  C   -0.008290   0.001101   0.337820   0.006133  -0.005621  -0.020391
     2  C   -0.014718  -0.010816  -0.034568   0.006940   0.000084  -0.006486
     3  H   -0.000340  -0.000299  -0.037654  -0.000274  -0.000063  -0.000597
     4  C    0.362930   0.372009  -0.119453  -0.019845  -0.012288   0.002855
     5  H    0.000210  -0.002423   0.010438  -0.000282  -0.000144  -0.000297
     6  C   -0.016899  -0.015342   0.416909   0.375180   0.372844  -0.021049
     7  H    0.660460  -0.026713   0.003545  -0.011585   0.006593   0.002608
     8  H   -0.026713   0.642449   0.007441   0.002497  -0.013815  -0.000581
     9  C    0.003545   0.007441   4.692277  -0.018896  -0.011328   0.371597
    10  H   -0.011585   0.002497  -0.018896   0.667147  -0.024410  -0.011734
    11  H    0.006593  -0.013815  -0.011328  -0.024410   0.629732   0.006739
    12  H    0.002608  -0.000581   0.371597  -0.011734   0.006739   0.660396
    13  H   -0.000674   0.000010   0.368492   0.002078  -0.013998  -0.024825
    14  O    0.000222   0.000892  -0.020042   0.000146   0.012000   0.001056
    15  H    0.000009  -0.000053   0.001309  -0.000021  -0.000785  -0.000126
              13         14         15
     1  C   -0.005291   0.053566  -0.007042
     2  C    0.000277   0.014334   0.008681
     3  H   -0.002378  -0.003608   0.000476
     4  C    0.008180  -0.012014  -0.000524
     5  H   -0.000300  -0.000857   0.001151
     6  C   -0.015624  -0.002045   0.000414
     7  H   -0.000674   0.000222   0.000009
     8  H    0.000010   0.000892  -0.000053
     9  C    0.368492  -0.020042   0.001309
    10  H    0.002078   0.000146  -0.000021
    11  H   -0.013998   0.012000  -0.000785
    12  H   -0.024825   0.001056  -0.000126
    13  H    0.630107   0.004637  -0.000299
    14  O    0.004637   7.975320   0.279727
    15  H   -0.000299   0.279727   0.556062
          Atomic-Atomic Spin Densities.
               1          2          3          4          5          6
     1  C   -0.069283   0.041567   0.001495  -0.002745   0.000008   0.002232
     2  C    0.041567   0.399280  -0.000463  -0.010859   0.003627  -0.005929
     3  H    0.001495  -0.000463   0.004731  -0.000165   0.000054   0.000215
     4  C   -0.002745  -0.010859  -0.000165  -0.031126  -0.000127   0.006527
     5  H    0.000008   0.003627   0.000054  -0.000127  -0.019972   0.000004
     6  C    0.002232  -0.005929   0.000215   0.006527   0.000004  -0.004367
     7  H    0.000659  -0.015118   0.000090   0.011240   0.000102  -0.000012
     8  H   -0.000790  -0.002206  -0.000047  -0.000700   0.000041   0.000068
     9  C    0.007776   0.000628   0.000176  -0.002310  -0.000269   0.002193
    10  H   -0.000100  -0.000059   0.000007   0.000200   0.000006   0.000073
    11  H    0.001443  -0.000091   0.000033   0.000177   0.000001   0.001431
    12  H    0.001913  -0.002263   0.000573   0.001044   0.000013   0.000279
    13  H    0.000699   0.001037  -0.000631  -0.000594  -0.000000  -0.000213
    14  O   -0.065622  -0.044176  -0.002544   0.002483   0.000182  -0.002163
    15  H    0.004295   0.003529   0.000286  -0.000088   0.000002   0.000099
               7          8          9         10         11         12
     1  C    0.000659  -0.000790   0.007776  -0.000100   0.001443   0.001913
     2  C   -0.015118  -0.002206   0.000628  -0.000059  -0.000091  -0.002263
     3  H    0.000090  -0.000047   0.000176   0.000007   0.000033   0.000573
     4  C    0.011240  -0.000700  -0.002310   0.000200   0.000177   0.001044
     5  H    0.000102   0.000041  -0.000269   0.000006   0.000001   0.000013
     6  C   -0.000012   0.000068   0.002193   0.000073   0.001431   0.000279
     7  H    0.025217  -0.005616  -0.000565   0.000208   0.000244   0.000122
     8  H   -0.005616   0.019691   0.000485  -0.000103  -0.000793  -0.000050
     9  C   -0.000565   0.000485  -0.001318   0.000295  -0.001636   0.000622
    10  H    0.000208  -0.000103   0.000295  -0.000880   0.000028   0.000002
    11  H    0.000244  -0.000793  -0.001636   0.000028   0.000723   0.000066
    12  H    0.000122  -0.000050   0.000622   0.000002   0.000066  -0.006484
    13  H   -0.000040   0.000064  -0.000757  -0.000038  -0.000320   0.000928
    14  O   -0.000295   0.001190   0.003952  -0.000054  -0.001925  -0.000364
    15  H    0.000047  -0.000231  -0.000202   0.000004   0.000183   0.000036
              13         14         15
     1  C    0.000699  -0.065622   0.004295
     2  C    0.001037  -0.044176   0.003529
     3  H   -0.000631  -0.002544   0.000286
     4  C   -0.000594   0.002483  -0.000088
     5  H   -0.000000   0.000182   0.000002
     6  C   -0.000213  -0.002163   0.000099
     7  H   -0.000040  -0.000295   0.000047
     8  H    0.000064   0.001190  -0.000231
     9  C   -0.000757   0.003952  -0.000202
    10  H   -0.000038  -0.000054   0.000004
    11  H   -0.000320  -0.001925   0.000183
    12  H    0.000928  -0.000364   0.000036
    13  H   -0.001396   0.000945  -0.000102
    14  O    0.000945   0.836194   0.001945
    15  H   -0.000102   0.001945  -0.024002
 Mulliken charges and spin densities:
               1          2
     1  C   -0.045315  -0.076452
     2  C   -0.121340   0.368502
     3  H    0.035194   0.003810
     4  C    0.018344  -0.027045
     5  H    0.028058  -0.016327
     6  C   -0.062859   0.000436
     7  H    0.042642   0.016282
     8  H    0.043644   0.011003
     9  C    0.032114   0.009068
    10  H    0.026927  -0.000409
    11  H    0.054460  -0.000435
    12  H    0.040834  -0.003565
    13  H    0.049608  -0.000418
    14  O   -0.303334   0.729749
    15  H    0.161022  -0.014200
 Sum of Mulliken charges =  -0.00000   1.00000
 Mulliken charges and spin densities with hydrogens summed into heavy atoms:
               1          2
     1  C   -0.010121  -0.072641
     2  C   -0.093282   0.352175
     4  C    0.104631   0.000240
     6  C    0.018529  -0.000408
     9  C    0.122556   0.005085
    14  O   -0.142312   0.715548
 APT charges:
               1
     1  C   -0.478410
     2  C   -0.540648
     3  H    0.426027
     4  C   -0.557028
     5  H    0.425530
     6  C   -0.664002
     7  H    0.380077
     8  H    0.341862
     9  C   -0.552337
    10  H    0.426511
    11  H    0.245390
    12  H    0.363558
    13  H    0.329123
    14  O   -0.624707
    15  H    0.479054
 Sum of APT charges =  -0.00000
 APT charges with hydrogens summed into heavy atoms:
               1
     1  C   -0.052383
     2  C   -0.115118
     4  C    0.164910
     6  C    0.007899
     9  C    0.140344
    14  O   -0.145652
 Electronic spatial extent (au):  <R**2>=            549.8341
 Charge=             -0.0000 electrons
 Dipole moment (field-independent basis, Debye):
    X=             -0.4168    Y=              1.0986    Z=              1.3751  Tot=              1.8087
 Quadrupole moment (field-independent basis, Debye-Ang):
   XX=            -35.5324   YY=            -35.1339   ZZ=            -38.0765
   XY=              2.7032   XZ=              2.1611   YZ=             -0.8056
 Traceless Quadrupole moment (field-independent basis, Debye-Ang):
   XX=              0.7152   YY=              1.1137   ZZ=             -1.8289
   XY=              2.7032   XZ=              2.1611   YZ=             -0.8056
 Octapole moment (field-independent basis, Debye-Ang**2):
  XXX=             14.3214  YYY=              2.1421  ZZZ=             -3.4516  XYY=              5.0237
  XXY=              6.7657  XXZ=              1.5401  XZZ=              2.6549  YZZ=             -0.2651
  YYZ=             -0.9947  XYZ=             -1.1748
 Hexadecapole moment (field-independent basis, Debye-Ang**3):
 XXXX=           -289.3356 YYYY=           -226.3845 ZZZZ=           -160.9254 XXXY=             18.0626
 XXXZ=             -8.5342 YYYX=              2.6400 YYYZ=              1.8652 ZZZX=             -2.0018
 ZZZY=             -2.9711 XXYY=            -87.4357 XXZZ=            -78.4069 YYZZ=            -63.3589
 XXYZ=             -4.3313 YYXZ=             -2.1498 ZZXY=              0.7274
 N-N= 2.407251564642D+02 E-N=-1.111412692044D+03  KE= 2.680472067396D+02
  Exact polarizability:       0.000       0.000       0.000       0.000       0.000       0.000
 Approx polarizability:      66.268      -4.921      66.411      -6.792       1.242      60.864
                          Isotropic Fermi Contact Couplings
        Atom                 a.u.       MegaHertz       Gauss      10(-4) cm-1
     1  C(13)              0.02302      25.87934       9.23439       8.63242
     2  C(13)              0.07825      87.97228      31.39070      29.34439
     3  H(1)               0.00146       6.52275       2.32748       2.17576
     4  C(13)             -0.01483     -16.67445      -5.94986      -5.56200
     5  H(1)              -0.00522     -23.32640      -8.32344      -7.78085
     6  C(13)              0.00008       0.08437       0.03010       0.02814
     7  H(1)               0.00865      38.67693      13.80089      12.90124
     8  H(1)               0.00492      21.99998       7.85014       7.33840
     9  C(13)              0.00167       1.88172       0.67144       0.62767
    10  H(1)              -0.00019      -0.84270      -0.30070      -0.28110
    11  H(1)               0.00020       0.88634       0.31627       0.29565
    12  H(1)              -0.00126      -5.62092      -2.00569      -1.87494
    13  H(1)              -0.00006      -0.27396      -0.09776      -0.09138
    14  O(17)              0.30884    -187.21532     -66.80308     -62.44831
    15  H(1)              -0.00982     -43.90283     -15.66562     -14.64441
 --------------------------------------------------------
       Center         ----  Spin Dipole Couplings  ----
                      3XX-RR        3YY-RR        3ZZ-RR
 --------------------------------------------------------
     1   Atom       -0.015293      0.011434      0.003860
     2   Atom        0.023313     -0.207631      0.184318
     3   Atom       -0.009670     -0.002379      0.012049
     4   Atom        0.005762     -0.007453      0.001691
     5   Atom       -0.011872      0.016965     -0.005094
     6   Atom        0.005536     -0.001915     -0.003621
     7   Atom        0.008051     -0.004642     -0.003410
     8   Atom        0.002889     -0.002320     -0.000568
     9   Atom       -0.001006      0.004030     -0.003024
    10   Atom        0.003088     -0.001005     -0.002083
    11   Atom        0.006461     -0.004098     -0.002363
    12   Atom        0.000059      0.002220     -0.002280
    13   Atom       -0.000959      0.005787     -0.004828
    14   Atom        0.264728     -1.148275      0.883548
    15   Atom        0.019609      0.037193     -0.056802
 --------------------------------------------------------
                        XY            XZ            YZ
 --------------------------------------------------------
     1   Atom        0.008254      0.003525     -0.029198
     2   Atom       -0.034184     -0.309918      0.041334
     3   Atom       -0.004446      0.000978     -0.007257
     4   Atom       -0.004822     -0.002414      0.001493
     5   Atom        0.015697     -0.007074      0.020693
     6   Atom        0.004361      0.000866      0.004677
     7   Atom       -0.002660      0.000315      0.000476
     8   Atom       -0.004928      0.004559     -0.002616
     9   Atom        0.007833     -0.003511      0.000597
    10   Atom        0.002378      0.000758      0.001053
    11   Atom        0.003708      0.004876      0.003197
    12   Atom        0.003301     -0.002705     -0.002004
    13   Atom        0.005909     -0.002640     -0.002673
    14   Atom       -0.641557     -1.960891      0.756673
    15   Atom        0.101588     -0.001103      0.049522
 --------------------------------------------------------


 ---------------------------------------------------------------------------------
              Anisotropic Spin Dipole Couplings in Principal Axis System
 ---------------------------------------------------------------------------------

       Atom             a.u.   MegaHertz   Gauss  10(-4) cm-1        Axes

              Baa    -0.0273    -3.669    -1.309    -1.224 -0.5649  0.5697  0.5969
     1 C(13)  Bbb    -0.0100    -1.347    -0.481    -0.449  0.8218  0.3227  0.4696
              Bcc     0.0374     5.016     1.790     1.673  0.0749  0.7558 -0.6505
 
              Baa    -0.2170   -29.121   -10.391    -9.714  0.7617  0.3366  0.5536
     2 C(13)  Bbb    -0.2115   -28.384   -10.128    -9.468 -0.2188  0.9379 -0.2692
              Bcc     0.4285    57.505    20.519    19.182 -0.6098  0.0840  0.7881
 
              Baa    -0.0120    -6.414    -2.289    -2.140  0.8683  0.4836  0.1105
     3 H(1)   Bbb    -0.0033    -1.774    -0.633    -0.592 -0.4844  0.7788  0.3984
              Bcc     0.0153     8.189     2.922     2.731  0.1066 -0.3995  0.9105
 
              Baa    -0.0091    -1.217    -0.434    -0.406  0.2990  0.9520 -0.0650
     4 C(13)  Bbb     0.0006     0.081     0.029     0.027  0.3798 -0.0562  0.9234
              Bcc     0.0085     1.136     0.405     0.379  0.8754 -0.3008 -0.3784
 
              Baa    -0.0298   -15.895    -5.672    -5.302  0.6517 -0.4790  0.5880
     5 H(1)   Bbb    -0.0020    -1.081    -0.386    -0.361  0.7195  0.1453 -0.6791
              Bcc     0.0318    16.976     6.058     5.663  0.2399  0.8657  0.4394
 
              Baa    -0.0079    -1.060    -0.378    -0.354  0.1757 -0.6823  0.7097
     6 C(13)  Bbb    -0.0004    -0.047    -0.017    -0.016 -0.5079  0.5547  0.6591
              Bcc     0.0083     1.108     0.395     0.369  0.8433  0.4762  0.2490
 
              Baa    -0.0053    -2.840    -1.013    -0.947  0.1941  0.9440 -0.2669
     7 H(1)   Bbb    -0.0033    -1.743    -0.622    -0.581  0.0355  0.2652  0.9635
              Bcc     0.0086     4.583     1.635     1.529  0.9803 -0.1965  0.0180
 
              Baa    -0.0053    -2.825    -1.008    -0.942  0.5354  0.8431 -0.0497
     8 H(1)   Bbb    -0.0035    -1.872    -0.668    -0.625 -0.3901  0.2991  0.8708
              Bcc     0.0088     4.698     1.676     1.567  0.7491 -0.4468  0.4891
 
              Baa    -0.0086    -1.153    -0.411    -0.384  0.7219 -0.4720  0.5060
     9 C(13)  Bbb    -0.0014    -0.182    -0.065    -0.061 -0.3381  0.3974  0.8531
              Bcc     0.0099     1.334     0.476     0.445  0.6038  0.7869 -0.1273
 
              Baa    -0.0028    -1.508    -0.538    -0.503  0.1637 -0.6451  0.7464
    10 H(1)   Bbb    -0.0016    -0.827    -0.295    -0.276 -0.4300  0.6343  0.6425
              Bcc     0.0044     2.336     0.833     0.779  0.8879  0.4261  0.1736
 
              Baa    -0.0065    -3.491    -1.246    -1.165  0.0023  0.7930 -0.6092
    11 H(1)   Bbb    -0.0036    -1.939    -0.692    -0.647 -0.5187  0.5218  0.6772
              Bcc     0.0102     5.430     1.938     1.811  0.8549  0.3145  0.4126
 
              Baa    -0.0041    -2.167    -0.773    -0.723  0.5686 -0.0366  0.8218
    12 H(1)   Bbb    -0.0018    -0.977    -0.349    -0.326 -0.5818  0.6883  0.4333
              Bcc     0.0059     3.144     1.122     1.049  0.5815  0.7245 -0.3701
 
              Baa    -0.0062    -3.298    -1.177    -1.100  0.4964 -0.0515  0.8666
    13 H(1)   Bbb    -0.0039    -2.095    -0.747    -0.699  0.7089 -0.5521 -0.4389
              Bcc     0.0101     5.393     1.924     1.799  0.5010  0.8322 -0.2375
 
              Baa    -1.4120   102.168    36.456    34.080  0.6990 -0.2362  0.6750
    14 O(17)  Bbb    -1.3961   101.020    36.046    33.697  0.3384  0.9408 -0.0212
              Bcc     2.8080  -203.188   -72.502   -67.776 -0.6300  0.2432  0.7375
 
              Baa    -0.1027   -54.782   -19.548   -18.273  0.4923 -0.5856  0.6440
    15 H(1)   Bbb    -0.0345   -18.397    -6.564    -6.136 -0.5884  0.3213  0.7420
              Bcc     0.1372    73.179    26.112    24.410  0.6414  0.7442  0.1864
 

 ---------------------------------------------------------------------------------

 No NMR shielding tensors so no spin-rotation constants.
 Leave Link  601 at Fri Aug 29 12:00:08 2025, MaxMem=  1610612736 cpu:               0.6 elap:               0.1
 (Enter /apps/eb/gaussian/16-AVX2/g16/l701.exe)
 ... and contract with generalized density number  0.
 Compute integral second derivatives.
 R6Disp: Adding Grimme-D2 dispersion energy 2nd derivatives to the Hessian.
   1 Symmetry operations used in ECPInt.
 ECPInt:  NShTT=    2016 NPrTT=    7008 LenC2=    2014 LenP2D=    6029.
 LDataN:  DoStor=T MaxTD1= 6 Len=  172
 Leave Link  701 at Fri Aug 29 12:00:08 2025, MaxMem=  1610612736 cpu:               0.4 elap:               0.1
 (Enter /apps/eb/gaussian/16-AVX2/g16/l702.exe)
 L702 exits ... SP integral derivatives will be done elsewhere.
 Leave Link  702 at Fri Aug 29 12:00:08 2025, MaxMem=  1610612736 cpu:               0.0 elap:               0.0
 (Enter /apps/eb/gaussian/16-AVX2/g16/l703.exe)
 Integral derivatives from FoFJK, PRISM(SPDF).
 Compute integral second derivatives, UseDBF=F ICtDFT=           0.
 Calling FoFJK, ICntrl=    100127 FMM=F ISym2X=0 I1Cent= 0 IOpClX= 1 NMat=1 NMatS=1 NMatT=0.
 FoFJK:  IHMeth= 1 ICntrl=  100127 DoSepK=T KAlg= 0 I1Cent=           0 FoldK=F
 IRaf=         1 NMat=       1 IRICut=       1 DoRegI=T DoRafI=F ISym2E= 0 IDoP0=0 IntGTp=1.
 FoFCou: FMM=F IPFlag=           0 FMFlag=      100000 FMFlg1=         800
         NFxFlg=           0 DoJE=F BraDBF=F KetDBF=F FulRan=T
         wScrn=  0.000000 ICntrl=    100527 IOpCl=  0 I1Cent=           0 NGrid=           0
         NMat0=    1 NMatS0=      1 NMatT0=    0 NMatD0=    1 NMtDS0=    0 NMtDT0=    0
 Symmetry not used in FoFCou.
 Leave Link  703 at Fri Aug 29 12:00:32 2025, MaxMem=  1610612736 cpu:             146.5 elap:              24.5
 (Enter /apps/eb/gaussian/16-AVX2/g16/l716.exe)
 Dipole        =-1.64000245D-01 4.32241704D-01 5.40987368D-01
 Polarizability= 0.00000000D+00 0.00000000D+00 0.00000000D+00
                 0.00000000D+00 0.00000000D+00 0.00000000D+00
 ***** Axes restored to original set *****
 -------------------------------------------------------------------
 Center     Atomic                   Forces (Hartrees/Bohr)
 Number     Number              X              Y              Z
 -------------------------------------------------------------------
      1        6          -0.005850217    0.006322498   -0.009066270
      2        6          -0.004925084   -0.002823184    0.010508141
      3        1           0.005639750   -0.000854647   -0.004272002
      4        6           0.001706653    0.001543793   -0.007914911
      5        1           0.005425714    0.000398833    0.004107675
      6        6           0.006917435   -0.003337144    0.000275331
      7        1          -0.000634606   -0.005076092    0.002788715
      8        1          -0.001146245    0.003664827    0.004716198
      9        6           0.001223972    0.001678642    0.007617072
     10        1          -0.005204282   -0.003044670    0.000065379
     11        1          -0.001690680    0.005892504   -0.000342694
     12        1          -0.000360343   -0.005443514   -0.002128390
     13        1          -0.000840563    0.003228194   -0.004932911
     14        8          -0.002761400   -0.002003009   -0.002712003
     15        1           0.002499895   -0.000147031    0.001290671
 -------------------------------------------------------------------
 Cartesian Forces:  Max     0.010508141 RMS     0.004287747
 -----------------------------------------------------------------------------------------------
                       Internal Coordinate Forces (Hartree/Bohr or radian)
  Cent   Atom   N1       Length/X         N2         Alpha/Y        N3         Beta/Z          J
 -----------------------------------------------------------------------------------------------
      1  C 
      2  C        1   0.014760(     1)
      3  H        1   0.007069(     2)      2   0.000591(    15)
      4  C        2   0.000175(     3)      1  -0.000235(    16)      3   0.000813(    28)     0
      5  H        2   0.006810(     4)      1   0.000590(    17)      4  -0.000119(    29)     0
      6  C        4  -0.000592(     5)      2  -0.001246(    18)      1   0.003149(    30)     0
      7  H        4   0.005804(     6)      2   0.000469(    19)      6   0.000885(    31)     0
      8  H        4   0.006063(     7)      2   0.000202(    20)      6  -0.000892(    32)     0
      9  C        6  -0.000326(     8)      4  -0.002091(    21)      2   0.003088(    33)     0
     10  H        6   0.005997(     9)      4   0.000737(    22)      9   0.000989(    34)     0
     11  H        6   0.006136(    10)      4  -0.000066(    23)      9   0.000439(    35)     0
     12  H        9   0.005843(    11)      6   0.000610(    24)      4   0.000484(    36)     0
     13  H        9   0.005930(    12)      6   0.001119(    25)     12   0.000020(    37)     0
     14  O        1  -0.002180(    13)      2   0.004709(    26)      3  -0.000570(    38)     0
     15  H       14   0.002705(    14)      1  -0.001438(    27)      2  -0.000064(    39)     0
 -----------------------------------------------------------------------------------------------
 Internal  Forces:  Max     0.014759604 RMS     0.003912245
 Force constants in internal coordinates: 
                1             2             3             4             5 
      1  0.652951D+00
      2  0.761070D-02  0.389456D+00
      3 -0.359646D-03  0.623646D-02  0.520483D+00
      4 -0.193258D-03  0.431426D-03 -0.260677D-03  0.384306D+00
      5 -0.124744D+00 -0.367421D-02  0.145278D+00  0.246480D-02  0.523394D+00
      6 -0.123640D-02  0.182507D-03  0.807022D-02  0.303025D-03  0.398269D-02
      7  0.188516D-03  0.157959D-03  0.448626D-02  0.310430D-03  0.166653D-02
      8 -0.269144D-01 -0.664967D-02 -0.926573D-01  0.133934D-02  0.374067D-02
      9  0.104400D-02  0.139583D-03  0.206622D-02  0.151539D-03  0.136324D-02
     10  0.431239D-03  0.912923D-04 -0.122031D-02  0.107250D-03  0.225962D-02
     11 -0.454189D-02  0.336884D-03  0.340438D-02  0.187957D-03  0.538282D-02
     12 -0.459179D-02  0.222525D-03 -0.140457D-02  0.163409D-03  0.642457D-02
     13  0.450502D-01 -0.719471D-03  0.335758D-03 -0.514346D-03 -0.232239D-02
     14  0.378013D-02  0.129723D-03 -0.180009D-02 -0.527056D-04 -0.107815D-02
     15 -0.859528D-02  0.181746D-02 -0.418881D-01 -0.860888D-03  0.639298D-02
     16 -0.216858D-01  0.313467D-01  0.695462D+00 -0.244758D-01  0.406059D+00
     17  0.179221D-01 -0.900070D-03 -0.232894D-01  0.150453D-02  0.373796D-02
     18 -0.414005D+00  0.123272D-01  0.977252D+00  0.425607D-02  0.105721D+01
     19  0.118029D-02  0.422284D-03  0.301355D-01  0.547142D-03 -0.179832D-01
     20  0.456219D-02  0.785949D-03  0.288538D-01  0.660679D-05 -0.128735D-01
     21 -0.415318D+00 -0.738605D-02  0.383877D+00  0.449871D-02  0.831214D+00
     22 -0.452610D-02 -0.223507D-03  0.106641D-02  0.111017D-02  0.331210D-01
     23 -0.751765D-03 -0.230074D-05 -0.169733D-02  0.249740D-03  0.383771D-01
     24  0.833663D-02 -0.217944D-03 -0.853553D-03  0.942402D-04 -0.204900D-02
     25  0.190459D-01  0.324170D-03  0.513466D-02  0.767905D-04 -0.184204D-01
     26  0.317996D-03  0.172916D-02 -0.339141D-02 -0.242710D-03 -0.289209D-02
     27  0.864873D-04  0.703350D-03  0.213404D-02  0.918262D-03  0.257528D-02
     28 -0.131665D-01 -0.610607D-03  0.102604D-01  0.107431D-02  0.535803D-02
     29 -0.325778D-02 -0.666337D-04 -0.122170D-02  0.780724D-03  0.347314D-02
     30 -0.348251D-01 -0.786986D-03  0.348915D-01 -0.236826D-03  0.385187D-04
     31  0.478715D-03  0.278133D-03  0.394882D-02 -0.963249D-04  0.233888D-01
     32  0.478677D-05 -0.502698D-03 -0.254166D-02 -0.343050D-03 -0.273629D-01
     33 -0.121623D+00  0.195221D-02  0.212555D+00 -0.483596D-03  0.229631D+00
     34  0.655958D-02  0.102525D-02  0.117190D-01  0.327715D-03  0.166108D-02
     35 -0.458585D-02 -0.127111D-03 -0.788239D-03 -0.118378D-03  0.826475D-02
     36  0.208981D-01  0.293190D-03  0.131579D-01 -0.845328D-03 -0.369877D-01
     37  0.392462D-01 -0.115226D-03  0.779118D-02 -0.111730D-02 -0.526310D-01
     38 -0.261831D-03  0.399955D-02  0.160644D-01  0.108736D-02  0.412182D-02
     39  0.873783D-03 -0.738434D-03  0.223925D-02  0.750210D-03  0.304299D-04
                6             7             8             9            10 
      6  0.346559D+00
      7  0.203656D-02  0.359025D+00
      8  0.856562D-03  0.274140D-03  0.334824D+00
      9  0.824739D-03  0.681581D-04  0.103942D-03  0.362855D+00
     10 -0.507094D-03  0.774105D-03  0.288251D-02  0.100302D-02  0.366878D+00
     11 -0.668352D-04  0.110191D-03  0.568427D-02  0.813889D-03 -0.519251D-03
     12  0.148657D-03  0.707533D-04  0.461776D-02  0.800564D-04  0.629685D-03
     13  0.318415D-03 -0.125423D-03  0.979723D-03 -0.365862D-04 -0.100082D-02
     14 -0.125042D-04 -0.363905D-04 -0.395439D-03 -0.360219D-04 -0.214980D-03
     15  0.118364D-03  0.572695D-03  0.444799D-01 -0.747771D-03 -0.138107D-03
     16  0.341941D-02  0.199838D-02 -0.291292D+00  0.298286D-02 -0.294773D-02
     17 -0.102630D-02 -0.294369D-03  0.696346D-02 -0.735670D-03 -0.189794D-03
     18 -0.256422D-02 -0.770003D-02 -0.286228D+00  0.573284D-02 -0.487011D-02
     19  0.105237D-02 -0.933610D-02 -0.111307D-02  0.111225D-02 -0.149929D-02
     20 -0.976529D-02 -0.396977D-03  0.114024D-02 -0.100263D-02 -0.473438D-04
     21  0.333074D-02  0.183023D-02  0.525146D-02 -0.106910D-01 -0.459035D-02
     22 -0.164821D-02  0.142487D-02 -0.798813D-02 -0.351227D-02 -0.721803D-02
     23  0.396165D-02 -0.167814D-02 -0.203616D-01 -0.870795D-02 -0.243382D-02
     24  0.611862D-03  0.190258D-03  0.193275D-01 -0.163586D-02  0.359239D-02
     25  0.336064D-03  0.623688D-03  0.202004D-01  0.141603D-02 -0.205740D-02
     26 -0.128825D-03 -0.203185D-02 -0.815618D-03  0.198495D-03 -0.187169D-02
     27 -0.990110D-04 -0.147310D-03  0.961831D-03 -0.201472D-03  0.418607D-03
     28  0.110269D-02 -0.116222D-02  0.108846D-01  0.127615D-02 -0.622216D-02
     29 -0.284980D-03  0.870491D-03 -0.282191D-02 -0.206790D-03 -0.768061D-05
     30 -0.160506D-02  0.421757D-03  0.378485D-01 -0.343275D-03 -0.202235D-02
     31 -0.499596D-02 -0.139149D-01  0.172100D-02 -0.123207D-02  0.303357D-02
     32  0.148098D-01  0.596848D-02 -0.600162D-02 -0.105082D-02  0.228497D-02
     33 -0.282242D-02 -0.343381D-04 -0.841093D-02 -0.348053D-02  0.148063D-02
     34 -0.103148D-02 -0.342805D-03  0.160456D-01 -0.542757D-02 -0.113727D-01
     35 -0.120604D-03 -0.691223D-03 -0.280344D-01  0.127680D-01  0.327798D-02
     36  0.726786D-04  0.000000D+00 -0.103501D-01  0.808972D-03  0.891201D-03
     37 -0.264684D-03 -0.116647D-03 -0.249231D-01  0.336202D-03  0.100467D-02
     38  0.241566D-03 -0.372275D-03  0.232733D-02  0.126885D-02 -0.617563D-02
     39 -0.427845D-04  0.301551D-03 -0.799836D-03  0.685255D-04 -0.272105D-03
               11            12            13            14            15 
     11  0.348921D+00
[...]
  Beta virt. eigenvalues --    0.46495   0.51051   0.51422   0.54867   0.56817
  Beta virt. eigenvalues --    0.57516   0.58742   0.64282   0.67457   0.68901
  Beta virt. eigenvalues --    0.70643   0.70658   0.72314   0.72543   0.74477
  Beta virt. eigenvalues --    0.75391   0.76355   0.77590   0.77807   0.79576
  Beta virt. eigenvalues --    0.79781   0.80839   0.83401   0.83478   0.87582
  Beta virt. eigenvalues --    0.91179   0.97602   1.08483   1.11298   1.16516
  Beta virt. eigenvalues --    1.17284   1.22315   1.23252   1.27422   1.32284
  Beta virt. eigenvalues --    1.36883   1.44378   1.49607   1.54683   1.55698
  Beta virt. eigenvalues --    1.62152   1.65860   1.66416   1.70286   1.75904
  Beta virt. eigenvalues --    1.79474   1.80181   1.83820   1.84849   1.87947
  Beta virt. eigenvalues --    1.88630   1.92875   1.94260   1.95559   1.98775
  Beta virt. eigenvalues --    2.00256   2.00364   2.03601   2.05906   2.06609
  Beta virt. eigenvalues --    2.11540   2.13765   2.19683   2.26733   2.28004
  Beta virt. eigenvalues --    2.32222   2.36778   2.41245   2.42380   2.51309
  Beta virt. eigenvalues --    2.51665   2.53250   2.58748   2.66600   2.71418
  Beta virt. eigenvalues --    2.72679   2.77819   2.84435   2.86720   2.88962
  Beta virt. eigenvalues --    2.90819   2.94973   3.02716   3.08102   3.08361
  Beta virt. eigenvalues --    3.09306   3.10371   3.11381   3.15975   3.38967
  Beta virt. eigenvalues --    3.84740
          Condensed to atoms (all electrons):
               1          2          3          4          5          6
     1  C    4.975873   0.514887   0.422005  -0.028249  -0.049579  -0.063777
     2  C    0.514887   4.975801  -0.049574   0.328402   0.422008  -0.063768
     3  H    0.422005  -0.049574   0.631772   0.010517  -0.007404   0.006081
     4  C   -0.028249   0.328402   0.010517   4.706439  -0.042093   0.417881
     5  H   -0.049579   0.422008  -0.007404  -0.042093   0.631771   0.006080
     6  C   -0.063777  -0.063768   0.006081   0.417881   0.006080   4.681956
     7  H   -0.008290  -0.017695  -0.000316   0.367301   0.000017  -0.019795
     8  H    0.000681  -0.008980  -0.000288   0.370282  -0.002512  -0.016118
     9  C    0.328386  -0.028251  -0.042098  -0.120231   0.010519   0.417873
    10  H    0.006383   0.006382  -0.000265  -0.019481  -0.000265   0.375503
    11  H   -0.002911  -0.002914  -0.000104  -0.010725  -0.000104   0.371672
    12  H   -0.017697  -0.008286   0.000015   0.003857  -0.000316  -0.019794
    13  H   -0.008980   0.000679  -0.002510   0.007362  -0.000288  -0.016120
    14  O    0.026953   0.026961  -0.001470  -0.010115  -0.001470  -0.004913
    15  H    0.001516   0.001511   0.000754  -0.000006   0.000755   0.000432
               7          8          9         10         11         12
     1  C   -0.008290   0.000681   0.328386   0.006383  -0.002911  -0.017697
     2  C   -0.017695  -0.008980  -0.028251   0.006382  -0.002914  -0.008286
     3  H   -0.000316  -0.000288  -0.042098  -0.000265  -0.000104   0.000015
     4  C    0.367301   0.370282  -0.120231  -0.019481  -0.010725   0.003857
     5  H    0.000017  -0.002512   0.010519  -0.000265  -0.000104  -0.000316
     6  C   -0.019795  -0.016118   0.417873   0.375503   0.371672  -0.019794
     7  H    0.660974  -0.026437   0.003858  -0.011383   0.006400   0.002490
     8  H   -0.026437   0.637649   0.007361   0.002416  -0.013919  -0.000643
     9  C    0.003858   0.007361   4.706472  -0.019482  -0.010725   0.367301
    10  H   -0.011383   0.002416  -0.019482   0.664148  -0.024817  -0.011382
    11  H    0.006400  -0.013919  -0.010725  -0.024817   0.626889   0.006400
    12  H    0.002490  -0.000643   0.367301  -0.011382   0.006400   0.660976
    13  H   -0.000643   0.000022   0.370284   0.002416  -0.013919  -0.026438
    14  O    0.000420   0.002917  -0.010112   0.000116   0.010290   0.000419
    15  H   -0.000027  -0.000155  -0.000006  -0.000027  -0.000732  -0.000027
              13         14         15
     1  C   -0.008980   0.026953   0.001516
     2  C    0.000679   0.026961   0.001511
     3  H   -0.002510  -0.001470   0.000754
     4  C    0.007362  -0.010115  -0.000006
     5  H   -0.000288  -0.001470   0.000755
     6  C   -0.016120  -0.004913   0.000432
     7  H   -0.000643   0.000420  -0.000027
     8  H    0.000022   0.002917  -0.000155
     9  C    0.370284  -0.010112  -0.000006
    10  H    0.002416   0.000116  -0.000027
    11  H   -0.013919   0.010290  -0.000732
    12  H   -0.026438   0.000419  -0.000027
    13  H    0.637651   0.002915  -0.000154
    14  O    0.002915   7.951399   0.278308
    15  H   -0.000154   0.278308   0.551814
          Atomic-Atomic Spin Densities.
               1          2          3          4          5          6
     1  C    0.112608   0.039932   0.001096  -0.000533   0.000399  -0.001783
     2  C    0.039932   0.112483   0.000398   0.000919   0.001096  -0.001780
     3  H    0.001096   0.000398  -0.006671  -0.000201   0.000053   0.000054
     4  C   -0.000533   0.000919  -0.000201  -0.013493   0.000077   0.003259
     5  H    0.000399   0.001096   0.000053   0.000077  -0.006664   0.000054
     6  C   -0.001783  -0.001780   0.000054   0.003259   0.000054  -0.003366
     7  H   -0.000920  -0.004555   0.000032   0.005133   0.000276   0.000363
     8  H    0.000281  -0.000564  -0.000014  -0.001199  -0.000208  -0.000362
     9  C    0.000915  -0.000532   0.000077  -0.001990  -0.000201   0.003260
    10  H   -0.000074  -0.000074   0.000004   0.000265   0.000004   0.000004
    11  H    0.000601   0.000601   0.000010  -0.000809   0.000010   0.001765
    12  H   -0.004561  -0.000919   0.000276   0.000361   0.000032   0.000363
    13  H   -0.000564   0.000280  -0.000208  -0.000042  -0.000014  -0.000362
    14  O   -0.045737  -0.045746  -0.000309   0.003002  -0.000308  -0.001862
    15  H    0.002934   0.002935   0.000067  -0.000112   0.000067   0.000095
               7          8          9         10         11         12
     1  C   -0.000920   0.000281   0.000915  -0.000074   0.000601  -0.004561
     2  C   -0.004555  -0.000564  -0.000532  -0.000074   0.000601  -0.000919
     3  H    0.000032  -0.000014   0.000077   0.000004   0.000010   0.000276
     4  C    0.005133  -0.001199  -0.001990   0.000265  -0.000809   0.000361
     5  H    0.000276  -0.000208  -0.000201   0.000004   0.000010   0.000032
     6  C    0.000363  -0.000362   0.003260   0.000004   0.001765   0.000363
     7  H    0.004749  -0.001786   0.000361   0.000002   0.000140   0.000082
     8  H   -0.001786   0.007534  -0.000042  -0.000024  -0.000574  -0.000041
     9  C    0.000361  -0.000042  -0.013506   0.000265  -0.000809   0.005135
    10  H    0.000002  -0.000024   0.000265  -0.000680  -0.000024   0.000002
    11  H    0.000140  -0.000574  -0.000809  -0.000024   0.001005   0.000140
    12  H    0.000082  -0.000041   0.005135   0.000002   0.000140   0.004760
    13  H   -0.000041   0.000070  -0.001199  -0.000025  -0.000574  -0.001789
    14  O   -0.000282   0.001235   0.003003  -0.000037  -0.001994  -0.000282
    15  H    0.000031  -0.000142  -0.000112   0.000003   0.000179   0.000031
              13         14         15
     1  C   -0.000564  -0.045737   0.002934
     2  C    0.000280  -0.045746   0.002935
     3  H   -0.000208  -0.000309   0.000067
     4  C   -0.000042   0.003002  -0.000112
     5  H   -0.000014  -0.000308   0.000067
     6  C   -0.000362  -0.001862   0.000095
     7  H   -0.000041  -0.000282   0.000031
     8  H    0.000070   0.001235  -0.000142
     9  C   -0.001199   0.003003  -0.000112
    10  H   -0.000025  -0.000037   0.000003
    11  H   -0.000574  -0.001994   0.000179
    12  H   -0.001789  -0.000282   0.000031
    13  H    0.007541   0.001235  -0.000142
    14  O    0.001235   0.900476   0.003258
    15  H   -0.000142   0.003258  -0.026902
 Mulliken charges and spin densities:
               1          2
     1  C   -0.097201   0.104595
     2  C   -0.097163   0.104474
     3  H    0.032885  -0.005334
     4  C    0.018857  -0.005364
     5  H    0.032882  -0.005326
     6  C   -0.073193  -0.000299
     7  H    0.043126   0.003584
     8  H    0.047723   0.004164
     9  C    0.018850  -0.005374
    10  H    0.029739  -0.000387
    11  H    0.059220  -0.000332
    12  H    0.043124   0.003591
    13  H    0.047723   0.004167
    14  O   -0.272618   0.815650
    15  H    0.166046  -0.017810
 Sum of Mulliken charges =  -0.00000   1.00000
 Mulliken charges and spin densities with hydrogens summed into heavy atoms:
               1          2
     1  C   -0.064316   0.099261
     2  C   -0.064281   0.099147
     4  C    0.109706   0.002385
     6  C    0.015766  -0.001017
     9  C    0.109697   0.002384
    14  O   -0.106572   0.797840
 Electronic spatial extent (au):  <R**2>=            557.6211
 Charge=             -0.0000 electrons
 Dipole moment (field-independent basis, Debye):
    X=              0.0483    Y=             -0.0006    Z=              1.6562  Tot=              1.6569
 Quadrupole moment (field-independent basis, Debye-Ang):
   XX=            -33.6910   YY=            -36.0676   ZZ=            -38.5496
   XY=             -0.0015   XZ=              3.1644   YZ=             -0.0000
 Traceless Quadrupole moment (field-independent basis, Debye-Ang):
   XX=              2.4117   YY=              0.0352   ZZ=             -2.4469
   XY=             -0.0015   XZ=              3.1644   YZ=             -0.0000
 Octapole moment (field-independent basis, Debye-Ang**2):
  XXX=             22.0445  YYY=             -0.0011  ZZZ=             -4.1636  XYY=              3.2404
  XXY=             -0.0038  XXZ=              3.6124  XZZ=              2.2763  YZZ=             -0.0003
  YYZ=              0.2370  XYZ=              0.0002
 Hexadecapole moment (field-independent basis, Debye-Ang**3):
 XXXX=           -256.7664 YYYY=           -231.0089 ZZZZ=           -178.7332 XXXY=             -0.0117
 XXXZ=             -3.5546 YYYX=             -0.0004 YYYZ=             -0.0028 ZZZX=             -1.9232
 ZZZY=             -0.0007 XXYY=            -91.5085 XXZZ=            -82.8670 YYZZ=            -64.7709
 XXYZ=              0.0019 YYXZ=             -0.0564 ZZXY=             -0.0000
 N-N= 2.386995813237D+02 E-N=-1.107287987176D+03  KE= 2.679300224886D+02
                          Isotropic Fermi Contact Couplings
        Atom                 a.u.       MegaHertz       Gauss      10(-4) cm-1
     1  C(13)              0.04226      47.50374      16.95051      15.84554
     2  C(13)              0.04221      47.45179      16.93198      15.82821
     3  H(1)              -0.00175      -7.82710      -2.79290      -2.61084
     4  C(13)             -0.00552      -6.21093      -2.21622      -2.07174
     5  H(1)              -0.00175      -7.81701      -2.78930      -2.60747
     6  C(13)             -0.00020      -0.22561      -0.08050      -0.07526
     7  H(1)               0.00233      10.41704       3.71706       3.47475
     8  H(1)               0.00159       7.12075       2.54086       2.37523
     9  C(13)             -0.00553      -6.21962      -2.21932      -2.07464
    10  H(1)              -0.00015      -0.65744      -0.23459      -0.21930
    11  H(1)               0.00029       1.27979       0.45666       0.42689
    12  H(1)               0.00233      10.43023       3.72177       3.47915
    13  H(1)               0.00159       7.12770       2.54334       2.37755
    14  O(17)              0.32847    -199.11957     -71.05081     -66.41914
    15  H(1)              -0.01092     -48.79687     -17.41194     -16.27688
 --------------------------------------------------------
       Center         ----  Spin Dipole Couplings  ----
                      3XX-RR        3YY-RR        3ZZ-RR
 --------------------------------------------------------
     1   Atom        0.015531     -0.074902      0.059371
     2   Atom        0.015457     -0.074850      0.059393
     3   Atom       -0.005870     -0.000869      0.006739
     4   Atom        0.003524     -0.002239     -0.001285
     5   Atom       -0.005868     -0.000880      0.006748
     6   Atom        0.007919     -0.006544     -0.001375
     7   Atom        0.003430     -0.000812     -0.002617
     8   Atom        0.001230      0.002571     -0.003801
     9   Atom        0.003528     -0.002242     -0.001286
    10   Atom        0.003972     -0.002425     -0.001547
    11   Atom        0.008873     -0.006949     -0.001924
    12   Atom        0.003432     -0.000815     -0.002617
    13   Atom        0.001233      0.002566     -0.003799
    14   Atom        0.270242     -1.549533      1.279291
    15   Atom        0.089410     -0.111800      0.022391
 --------------------------------------------------------
                        XY            XZ            YZ
 --------------------------------------------------------
     1   Atom        0.025095     -0.127090     -0.030780
     2   Atom       -0.025076     -0.127003      0.030776
     3   Atom       -0.006132     -0.000128     -0.014773
     4   Atom       -0.007361     -0.002382     -0.000315
     5   Atom        0.006132     -0.000122      0.014767
     6   Atom       -0.000003      0.001928     -0.000002
     7   Atom       -0.004220     -0.001084      0.000185
     8   Atom       -0.006898      0.000238     -0.001216
     9   Atom        0.007359     -0.002381      0.000314
    10   Atom       -0.000001      0.001301     -0.000001
    11   Atom       -0.000003      0.006379     -0.000002
    12   Atom        0.004219     -0.001082     -0.000184
    13   Atom        0.006898      0.000242      0.001219
    14   Atom        0.000473     -2.258773     -0.000604
    15   Atom       -0.000085      0.088566     -0.000076
 --------------------------------------------------------


 ---------------------------------------------------------------------------------
              Anisotropic Spin Dipole Couplings in Principal Axis System
 ---------------------------------------------------------------------------------

       Atom             a.u.   MegaHertz   Gauss  10(-4) cm-1        Axes

              Baa    -0.0916   -12.286    -4.384    -4.098  0.7575  0.0602  0.6501
     1 C(13)  Bbb    -0.0812   -10.900    -3.889    -3.636 -0.1484  0.9856  0.0816
              Bcc     0.1728    23.186     8.273     7.734 -0.6358 -0.1583  0.7554
 
              Baa    -0.0915   -12.279    -4.381    -4.096  0.7576 -0.0604  0.6499
     2 C(13)  Bbb    -0.0812   -10.893    -3.887    -3.634  0.1486  0.9855 -0.0816
              Bcc     0.1727    23.172     8.268     7.729 -0.6356  0.1583  0.7556
 
              Baa    -0.0151    -8.044    -2.870    -2.683  0.4876  0.7216  0.4915
     3 H(1)   Bbb    -0.0037    -1.961    -0.700    -0.654  0.8598 -0.2991 -0.4138
              Bcc     0.0188    10.005     3.570     3.337  0.1515 -0.6244  0.7663
 
              Baa    -0.0077    -1.030    -0.368    -0.344  0.5683  0.7838  0.2503
     4 C(13)  Bbb    -0.0012    -0.160    -0.057    -0.053  0.0029 -0.3062  0.9520
              Bcc     0.0089     1.190     0.425     0.397  0.8228 -0.5403 -0.1763
 
              Baa    -0.0151    -8.041    -2.869    -2.682 -0.4875  0.7218 -0.4913
     5 H(1)   Bbb    -0.0037    -1.961    -0.700    -0.654  0.8599  0.2991 -0.4137
              Bcc     0.0187    10.003     3.569     3.337  0.1517  0.6241  0.7665
 
              Baa    -0.0065    -0.878    -0.313    -0.293  0.0001  1.0000  0.0003
     6 C(13)  Bbb    -0.0018    -0.236    -0.084    -0.079 -0.1953 -0.0002  0.9807
              Bcc     0.0083     1.114     0.398     0.372  0.9807 -0.0002  0.1953
 
              Baa    -0.0036    -1.924    -0.687    -0.642  0.5132  0.7471  0.4226
     7 H(1)   Bbb    -0.0025    -1.357    -0.484    -0.453 -0.1321 -0.4178  0.8989
              Bcc     0.0062     3.282     1.171     1.095  0.8481 -0.5171 -0.1157
 
              Baa    -0.0053    -2.836    -1.012    -0.946  0.6554  0.6360  0.4074
     8 H(1)   Bbb    -0.0036    -1.923    -0.686    -0.641 -0.3547 -0.2171  0.9094
              Bcc     0.0089     4.759     1.698     1.587 -0.6669  0.7405 -0.0833
 
              Baa    -0.0077    -1.030    -0.368    -0.344 -0.5681  0.7840 -0.2502
     9 C(13)  Bbb    -0.0012    -0.160    -0.057    -0.053  0.0031  0.3061  0.9520
              Bcc     0.0089     1.190     0.425     0.397  0.8229  0.5401 -0.1763
 
              Baa    -0.0024    -1.294    -0.462    -0.432  0.0001  1.0000  0.0005
    10 H(1)   Bbb    -0.0018    -0.981    -0.350    -0.327 -0.2186 -0.0005  0.9758
              Bcc     0.0043     2.275     0.812     0.759  0.9758 -0.0002  0.2186
 
              Baa    -0.0069    -3.708    -1.323    -1.237  0.0000  1.0000  0.0003
    11 H(1)   Bbb    -0.0049    -2.605    -0.930    -0.869 -0.4207 -0.0003  0.9072
              Bcc     0.0118     6.313     2.252     2.106  0.9072 -0.0002  0.4207
 
              Baa    -0.0036    -1.924    -0.687    -0.642 -0.5130  0.7476 -0.4218
    12 H(1)   Bbb    -0.0025    -1.357    -0.484    -0.453 -0.1317  0.4171  0.8993
              Bcc     0.0062     3.282     1.171     1.095  0.8482  0.5169 -0.1155
 
              Baa    -0.0053    -2.836    -1.012    -0.946  0.6553 -0.6364  0.4069
    13 H(1)   Bbb    -0.0036    -1.923    -0.686    -0.641 -0.3545  0.2166  0.9096
              Bcc     0.0089     4.759     1.698     1.587  0.6670  0.7403  0.0837
 
              Baa    -1.5495   112.123    40.008    37.400  0.0005  1.0000  0.0006
    14 O(17)  Bbb    -1.5397   111.409    39.754    37.162  0.7804 -0.0008  0.6253
              Bcc     3.0892  -223.532   -79.762   -74.562 -0.6253 -0.0002  0.7804
 
              Baa    -0.1118   -59.651   -21.285   -19.898  0.0002  1.0000  0.0004
    15 H(1)   Bbb    -0.0388   -20.698    -7.386    -6.904 -0.5684 -0.0002  0.8228
              Bcc     0.1506    80.349    28.671    26.802  0.8228 -0.0004  0.5684
 

 ---------------------------------------------------------------------------------

 No NMR shielding tensors so no spin-rotation constants.
 Leave Link  601 at Fri Aug 29 12:03:16 2025, MaxMem=  1610612736 cpu:               0.6 elap:               0.1
 (Enter /apps/eb/gaussian/16-AVX2/g16/l9999.exe)
 Unable to Open any file for archive entry.
 1\1\GINC-A1-8\FTS\UwB97XD\def2SVP\C5H9O1(2)\AVCOPAN\29-Aug-2025\1\\#P 
 wb97xd/def2svp # SCF=(xqc) # POpt=(CALCFC,TS,NOEIGEN,MAXCYCLES=60) # i
 nt=ultrafine\\comment:\\0,2\C\C,1,R1\H,1,R2,2,A2\C,2,R3,1,A3,3,D3,0\H,
 2,R4,1,A4,4,D4,0\C,4,R5,2,A5,1,D5,0\H,4,R6,2,A6,6,D6,0\H,4,R7,2,A7,6,D
 7,0\C,6,R8,4,A8,2,D8,0\H,6,R9,4,A9,9,D9,0\H,6,R10,4,A10,9,D10,0\H,9,R1
 1,6,A11,4,D11,0\H,9,R12,6,A12,12,D12,0\O,1,R13,2,A13,3,D13,0\H,14,R14,
 1,A14,2,D14,0\\R1=1.34895302\R2=1.09218897\R3=1.50300128\R4=1.09218706
 \R5=1.54286447\R6=1.10562726\R7=1.10009033\R8=1.54286227\R9=1.099095\R
 10=1.09843673\R11=1.10562737\R12=1.10009293\R13=2.41054126\R14=0.97020
 915\A2=124.96619002\A3=111.64580984\A4=124.96726751\A5=103.19549575\A6
 =109.67405314\A7=112.21985164\A8=105.59309434\A9=112.90663255\A10=108.
 68619117\A11=112.2597983\A12=112.69086775\A13=73.74578662\A14=90.11196
 57\D3=184.25294518\D4=175.77335182\D5=346.70718077\D6=119.80319626\D7=
 238.41305076\D8=20.69811076\D9=123.82254766\D10=243.54297885\D11=97.31
 30811\D12=120.72184901\D13=266.90450602\D14=90.04491835\\Version=ES64L
 -G16RevC.01\State=2-A\HF=-270.7809334\S2=0.753693\S2-1=0.\S2A=0.75001\
 RMSD=3.772e-09\RMSF=6.450e-06\Dipole=0.4495503,-0.4720439,-0.0001269\Q
 uadrupole=2.519286,-2.5454257,0.0261397,1.5441185,-0.0002617,-0.000289
 7\PG=C01 [X(C5H9O1)]\\@
 The archive entry for this job was punched.


 WHEN IT COMES TO CASH FLOW, IT SEEMS LIKE THE TIDE IS ALWAYS GOING OUT.
 Job cpu time:       0 days  0 hours 21 minutes 25.3 seconds.
 Elapsed time:       0 days  0 hours  3 minutes 48.3 seconds.
 File lengths (MBytes):  RWF=     57 Int=      0 D2E=      0 Chk=      3 Scr=      1
 Normal termination of Gaussian 16 at Fri Aug 29 12:03:16 2025.
