 Entering Gaussian System, Link 0=g16
 Input=run.inp
 Output=run.out
 Initial command:
 /apps/eb/gaussian/16-AVX2/g16/l1.exe "/scratch/gtemp/avcopan/Gau-895255.inp" -scrdir="/scratch/gtemp/avcopan/"
 Entering Link 1 = /apps/eb/gaussian/16-AVX2/g16/l1.exe PID=    895256.
  
 Copyright (c) 1988-2019, Gaussian, Inc.  All Rights Reserved.
  
 This is part of the Gaussian(R) 16 program.  It is based on
 the Gaussian(R) 09 system (copyright 2009, Gaussian, Inc.),
 the Gaussian(R) 03 system (copyright 2003, Gaussian, Inc.),
 the Gaussian(R) 98 system (copyright 1998, Gaussian, Inc.),
 the Gaussian(R) 94 system (copyright 1995, Gaussian, Inc.),
 the Gaussian 92(TM) system (copyright 1992, Gaussian, Inc.),
 the Gaussian 90(TM) system (copyright 1990, Gaussian, Inc.),
 the Gaussian 88(TM) system (copyright 1988, Gaussian, Inc.),
 the Gaussian 86(TM) system (copyright 1986, Carnegie Mellon
 University), and the Gaussian 82(TM) system (copyright 1983,
 Carnegie Mellon University). Gaussian is a federally registered
 trademark of Gaussian, Inc.
  
 This software contains proprietary and confidential information,
 including trade secrets, belonging to Gaussian, Inc.
  
 This software is provided under written license and may be
 used, copied, transmitted, or stored only in accord with that
 written license.
  
 The following legend is applicable only to US Government
 contracts under FAR:
  
                    RESTRICTED RIGHTS LEGEND
  
 Use, reproduction and disclosure by the US Government is
 subject to restrictions as set forth in subparagraphs (a)
 and (c) of the Commercial Computer Software - Restricted
 Rights clause in FAR 52.227-19.
  
 Gaussian, Inc.
 340 Quinnipiac St., Bldg. 40, Wallingford CT 06492
  
  
 ---------------------------------------------------------------
 Warning -- This program may not be used in any manner that
 competes with the business of Gaussian, Inc. or will provide
 assistance to any competitor of Gaussian, Inc.  The licensee
 of this program is prohibited from giving any competitor of
 Gaussian, Inc. access to this program.  By using this program,
 the user acknowledges that Gaussian, Inc. is engaged in the
 business of creating and licensing software in the field of
 computational chemistry and represents and warrants to the
 licensee that it is not a competitor of Gaussian, Inc. and that
 it will not use this program in any manner prohibited above.
 ---------------------------------------------------------------
  

 Cite this work as:
 Gaussian 16, Revision C.01,
 M. J. Frisch, G. W. Trucks, H. B. Schlegel, G. E. Scuseria, 
 M. A. Robb, J. R. Cheeseman, G. Scalmani, V. Barone, 
 G. A. Petersson, H. Nakatsuji, X. Li, M. Caricato, A. V. Marenich, 
 J. Bloino, B. G. Janesko, R. Gomperts, B. Mennucci, H. P. Hratchian, 
 J. V. Ortiz, A. F. Izmaylov, J. L. Sonnenberg, D. Williams-Young, 
 F. Ding, F. Lipparini, F. Egidi, J. Goings, B. Peng, A. Petrone, 
 T. Henderson, D. Ranasinghe, V. G. Zakrzewski, J. Gao, N. Rega, 
 G. Zheng, W. Liang, M. Hada, M. Ehara, K. Toyota, R. Fukuda, 
 J. Hasegawa, M. Ishida, T. Nakajima, Y. Honda, O. Kitao, H. Nakai, 
 T. Vreven, K. Throssell, J. A. Montgomery, Jr., J. E. Peralta, 
 F. Ogliaro, M. J. Bearpark, J. J. Heyd, E. N. Brothers, K. N. Kudin, 
 V. N. Staroverov, T. A. Keith, R. Kobayashi, J. Normand, 
 K. Raghavachari, A. P. Rendell, J. C. Burant, S. S. Iyengar, 
 J. Tomasi, M. Cossi, J. M. Millam, M. Klene, C. Adamo, R. Cammi, 
 J. W. Ochterski, R. L. Martin, K. Morokuma, O. Farkas, 
 J. B. Foresman, and D. J. Fox, Gaussian, Inc., Wallingford CT, 2019.
 
 ******************************************
 Gaussian 16:  ES64L-G16RevC.01  3-Jul-2019
                19-Sep-2025 
 ******************************************
 %mem=2GB
 %NProcShared=8
 Will use up to    8 processors via shared memory.
 -------------------------------------------------------
 #P wb97xd/def2svp # SCF=(xqc) # POpt=() # int=ultrafine
 -------------------------------------------------------
 1/10=7,26=4,38=1/1,3;
 2/12=2,17=6,18=5,29=3,40=1/2;
 3/5=43,7=101,11=2,25=1,30=1,71=1,74=-58,75=-5/1,2,3;
 4//1;
 5/5=2,8=3,13=1,38=5/2,8;
 6/7=2,8=2,9=2,10=2,28=1/1;
 7/29=1/1,2,3,16;
 1/10=7,26=4/3(2);
 2/29=3/2;
 99//99;
 2/29=3/2;
 3/5=43,7=101,11=2,25=1,30=1,71=1,74=-58,75=-5/1,2,3;
 4/5=5,16=3,69=1/1;
 5/5=2,8=3,13=1,38=5/2,8;
 7//1,2,3,16;
 1/26=4/3(-5);
 2/29=3/2;
 6/7=2,8=2,9=2,10=2,19=2,28=1/1;
 99/9=1/99;
 Leave Link    1 at Fri Sep 19 15:05:54 2025, MaxMem=   268435456 cpu:               0.4 elap:               0.1
 (Enter /apps/eb/gaussian/16-AVX2/g16/l101.exe)
 --------
 comment:
 --------
 Symbolic Z-matrix:
 Charge =  0 Multiplicity = 2
 C
 C                    1    R1
 O                    1    R2       2    A2
 C                    2    R3       1    A3       3    D3       0
 H                    2    R4       1    A4       4    D4       0
 H                    2    R5       1    A5       4    D5       0
 C                    4    R6       2    A6       1    D6       0
 H                    4    R7       2    A7       7    D7       0
 C                    7    R8       4    A8       2    D8       0
 H                    7    R9       4    A9       9    D9       0
 H                    9    R10      7    A10      4    D10      0
 H                    9    R11      7    A11      11   D11      0
 O                    3    R12      1    A12      9    D12      0
 H                    13   R13      3    A13      1    D13      0
       Variables:
  R1                    1.44465                  
  R2                    1.3706                   
  R3                    1.4058                   
  R4                    1.0906                   
  R6                    1.3824                   
  R7                    1.0904                   
  R8                    1.5061                   
  R9                    1.0899                   
  R10                   1.1079                   
  R11                   1.1027                   
  R13                   0.9673                   
  A2                  121.9599                   
  A3                  109.0602                   
  A4                  123.4482                   
  A5                   46.0264                   
  A6                  110.0342                   
  A7                  124.497                    
  A8                  110.3102                   
  A9                  125.7017                   
  A10                 112.0878                   
  A11                 114.0924                   
  A12                 108.2522                   
  A13                 101.1996                   
  D3                  158.3878                   
  D4                  173.7392                   
  D5                   99.1792                   
  D6                   -5.0405                   
  D7                  176.6825                   
  D8                  358.0722                   
  D9                  180.9987                   
  D10                 252.0316                   
  D11                 238.695                    
  D12                  73.1681                   
  D13                 100.2821                   
       Constants:
  R5                    1.34235                  
  R12                   1.4383                   
 
 ITRead=  0  0  0  0  0  0  0  0  0  0  0  0  0  0
 MicOpt= -1 -1 -1 -1 -1 -1 -1 -1 -1 -1 -1 -1 -1 -1
 NAtoms=     14 NQM=       14 NQMF=       0 NMMI=      0 NMMIF=      0
                NMic=       0 NMicF=      0.
                    Isotopes and Nuclear Properties:
 (Nuclear quadrupole moments (NQMom) in fm**2, nuclear magnetic moments (NMagM)
  in nuclear magnetons)

  Atom         1           2           3           4           5           6           7           8           9          10
 IAtWgt=          12          12          16          12           1           1          12           1          12           1
 AtmWgt=  12.0000000  12.0000000  15.9949146  12.0000000   1.0078250   1.0078250  12.0000000   1.0078250  12.0000000   1.0078250
 NucSpn=           0           0           0           0           1           1           0           1           0           1
 AtZEff=  -0.0000000  -0.0000000  -0.0000000  -0.0000000  -0.0000000  -0.0000000  -0.0000000  -0.0000000  -0.0000000  -0.0000000
 NQMom=    0.0000000   0.0000000   0.0000000   0.0000000   0.0000000   0.0000000   0.0000000   0.0000000   0.0000000   0.0000000
 NMagM=    0.0000000   0.0000000   0.0000000   0.0000000   2.7928460   2.7928460   0.0000000   2.7928460   0.0000000   2.7928460
 AtZNuc=   6.0000000   6.0000000   8.0000000   6.0000000   1.0000000   1.0000000   6.0000000   1.0000000   6.0000000   1.0000000

  Atom        11          12          13          14
 IAtWgt=           1           1          16           1
 AtmWgt=   1.0078250   1.0078250  15.9949146   1.0078250
 NucSpn=           1           1           0           1
 AtZEff=  -0.0000000  -0.0000000  -0.0000000  -0.0000000
 NQMom=    0.0000000   0.0000000   0.0000000   0.0000000
 NMagM=    2.7928460   2.7928460   0.0000000   2.7928460
 AtZNuc=   1.0000000   1.0000000   8.0000000   1.0000000
 Leave Link  101 at Fri Sep 19 15:05:55 2025, MaxMem=   268435456 cpu:               0.3 elap:               0.1
 (Enter /apps/eb/gaussian/16-AVX2/g16/l103.exe)

 GradGradGradGradGradGradGradGradGradGradGradGradGradGradGradGradGradGrad
 Berny optimization.
 Initialization pass.
                       ----------------------------
                       !    Initial Parameters    !
                       ! (Angstroms and Degrees)  !
 ----------------------                            ----------------------
 !      Name          Value   Derivative information (Atomic Units)     !
 ------------------------------------------------------------------------
 !       R1          1.4447   estimate D2E/DX2                          !
 !       R2          1.3706   estimate D2E/DX2                          !
 !       R3          1.4058   estimate D2E/DX2                          !
 !       R4          1.0906   estimate D2E/DX2                          !
 !       R6          1.3824   estimate D2E/DX2                          !
 !       R7          1.0904   estimate D2E/DX2                          !
 !       R8          1.5061   estimate D2E/DX2                          !
 !       R9          1.0899   estimate D2E/DX2                          !
 !       R10         1.1079   estimate D2E/DX2                          !
 !       R11         1.1027   estimate D2E/DX2                          !
 !       R13         0.9673   estimate D2E/DX2                          !
 !       A2        121.9599   estimate D2E/DX2                          !
 !       A3        109.0602   estimate D2E/DX2                          !
 !       A4        123.4482   estimate D2E/DX2                          !
 !       A5         46.0264   estimate D2E/DX2                          !
 !       A6        110.0342   estimate D2E/DX2                          !
 !       A7        124.497    estimate D2E/DX2                          !
 !       A8        110.3102   estimate D2E/DX2                          !
 !       A9        125.7017   estimate D2E/DX2                          !
 !       A10       112.0878   estimate D2E/DX2                          !
 !       A11       114.0924   estimate D2E/DX2                          !
 !       A12       108.2522   estimate D2E/DX2                          !
 !       A13       101.1996   estimate D2E/DX2                          !
 !       D3        158.3878   estimate D2E/DX2                          !
 !       D4        173.7392   estimate D2E/DX2                          !
 !       D5         99.1792   estimate D2E/DX2                          !
 !       D6         -5.0405   estimate D2E/DX2                          !
 !       D7        176.6825   estimate D2E/DX2                          !
 !       D8        358.0722   estimate D2E/DX2                          !
 !       D9        180.9987   estimate D2E/DX2                          !
 !       D10       252.0316   estimate D2E/DX2                          !
 !       D11       238.695    estimate D2E/DX2                          !
 !       D12        73.1681   estimate D2E/DX2                          !
 !       D13       100.2821   estimate D2E/DX2                          !
 !       R5          1.3424   Frozen                                    !
 !       R12         1.4383   Frozen                                    !
 ------------------------------------------------------------------------
 Trust Radius=3.00D-01 FncErr=1.00D-07 GrdErr=1.00D-06 EigMax=2.50D+02 EigMin=1.00D-04
 Number of steps in this run=     46 maximum allowed number of steps=    100.
 GradGradGradGradGradGradGradGradGradGradGradGradGradGradGradGradGradGrad

 Leave Link  103 at Fri Sep 19 15:05:55 2025, MaxMem=   268435456 cpu:               0.2 elap:               0.1
 (Enter /apps/eb/gaussian/16-AVX2/g16/l202.exe)
 ---------------------------------------------------------------------------------------------------
                            Z-MATRIX (ANGSTROMS AND DEGREES)
   CD    Cent   Atom    N1       Length/X        N2       Alpha/Y        N3        Beta/Z          J
 ---------------------------------------------------------------------------------------------------
      1      1  C 
      2      2  C        1   1.444654(     1)
      3      3  O        1   1.370600(     2)      2  121.960(    14)
      4      4  C        2   1.405800(     3)      1  109.060(    15)      3  158.388(    26)      0
      5      5  H        2   1.090600(     4)      1  123.448(    16)      4  173.739(    27)      0
      6      6  H        2   1.342353(     5)      1   46.026(    17)      4   99.179(    28)      0
      7      7  C        4   1.382400(     6)      2  110.034(    18)      1   -5.040(    29)      0
      8      8  H        4   1.090400(     7)      2  124.497(    19)      7  176.683(    30)      0
      9      9  C        7   1.506100(     8)      4  110.310(    20)      2  358.072(    31)      0
     10     10  H        7   1.089900(     9)      4  125.702(    21)      9  180.999(    32)      0
     11     11  H        9   1.107900(    10)      7  112.088(    22)      4  252.032(    33)      0
     12     12  H        9   1.102700(    11)      7  114.092(    23)     11  238.695(    34)      0
     13     13  O        3   1.438300(    12)      1  108.252(    24)      9   73.168(    35)      0
     14     14  H       13   0.967300(    13)      3  101.200(    25)      1  100.282(    36)      0
 ---------------------------------------------------------------------------------------------------
                         Z-Matrix orientation:                         
 ---------------------------------------------------------------------
 Center     Atomic      Atomic             Coordinates (Angstroms)
 Number     Number       Type             X           Y           Z
 ---------------------------------------------------------------------
      1          6           0        0.000000    0.000000    0.000000
      2          6           0        0.000000    0.000000    1.444654
      3          8           0        1.162843    0.000000   -0.725494
      4          6           0       -1.235316    0.489401    1.903734
      5          1           0        0.804409   -0.425428    2.045774
      6          1           0       -0.207986   -0.943382    0.512622
      7          6           0       -2.002219    0.915964    0.835589
      8          1           0       -1.556160    0.476006    2.945776
      9          6           0       -1.238735    0.756519   -0.452823
     10          1           0       -3.009414    1.327431    0.899900
     11          1           0       -0.914271    1.731033   -0.868140
     12          1           0       -1.803551    0.246041   -1.250533
     13          8           0        1.782865    1.289923   -0.582742
     14          1           0        2.457784    1.101214    0.083998
 ---------------------------------------------------------------------
                    Distance matrix (angstroms):
                    1          2          3          4          5
     1  C    0.000000
     2  C    1.444654   0.000000
     3  O    1.370600   2.462061   0.000000
     4  C    2.321578   1.405800   3.592147   0.000000
     5  H    2.239030   1.090600   2.826551   2.239993   0.000000
     6  H    1.093622   1.342353   2.074144   2.245766   1.908868
     7  C    2.355012   2.284476   3.646037   1.382400   3.337820
     8  H    3.365385   2.213952   4.593232   1.090400   2.682326
     9  C    1.520472   2.388976   2.532636   2.371650   3.437212
    10  H    3.410054   3.333977   4.670300   2.203951   4.350953
    11  H    2.141503   3.030080   2.707624   3.054179   4.011868
    12  H    2.208431   3.252287   3.022532   3.214268   4.256521
    13  O    2.276422   2.992130   1.438300   3.991593   3.287689
    14  H    2.694518   3.017409   1.882770   4.162300   2.985439
                    6          7          8          9         10
     6  H    0.000000
     7  C    2.603988   0.000000
     8  H    3.122895   2.201232   0.000000
     9  C    2.210021   1.506100   3.424897   0.000000
    10  H    3.626924   1.089900   2.649997   2.300240   0.000000
    11  H    3.091576   2.179602   4.066088   1.107900   2.771007
    12  H    2.658811   2.200039   4.209881   1.102700   2.692187
    13  O    3.186057   4.059356   4.925646   3.071069   5.016529
    14  H    3.386801   4.526680   4.969145   3.751165   5.532370
                   11         12         13         14
    11  H    0.000000
    12  H    1.772638   0.000000
    13  O    2.747831   3.794472   0.000000
    14  H    3.560056   4.546567   0.967300   0.000000
 Stoichiometry    C5H7O2(2)
 Framework group  C1[X(C5H7O2)]
 Deg. of freedom    36
 Full point group                 C1      NOp   1
 Largest Abelian subgroup         C1      NOp   1
 Largest concise Abelian subgroup C1      NOp   1
                         Standard orientation:                         
 ---------------------------------------------------------------------
 Center     Atomic      Atomic             Coordinates (Angstroms)
 Number     Number       Type             X           Y           Z
 ---------------------------------------------------------------------
      1          6           0        0.269792   -0.037498    0.544224
      2          6           0       -0.451057    1.156575    0.167939
      3          8           0        1.639422   -0.078592    0.575376
      4          6           0       -1.744220    0.799055   -0.251802
      5          1           0       -0.059470    2.164647    0.308861
      6          1           0       -0.178424    0.563109    1.340705
      7          6           0       -1.870257   -0.577353   -0.277256
      8          1           0       -2.542365    1.510167   -0.466873
      9          6           0       -0.567859   -1.228769    0.107130
     10          1           0       -2.769776   -1.128725   -0.550635
     11          1           0       -0.066863   -1.702135   -0.760262
     12          1           0       -0.665848   -2.009634    0.879526
     13          8           0        2.122142   -0.041267   -0.778985
     14          1           0        2.371842    0.889386   -0.863859
 ---------------------------------------------------------------------
 Rotational constants (GHZ):           5.7687829           2.0523446           1.7837281
 Leave Link  202 at Fri Sep 19 15:05:55 2025, MaxMem=   268435456 cpu:               0.2 elap:               0.1
 (Enter /apps/eb/gaussian/16-AVX2/g16/l301.exe)
 Standard basis: def2SVP (5D, 7F)
 Ernie: Thresh=  0.10000D-02 Tol=  0.10000D-05 Strict=F.
 There are   140 symmetry adapted cartesian basis functions of A   symmetry.
 There are   133 symmetry adapted basis functions of A   symmetry.
   133 basis functions,   224 primitive gaussians,   140 cartesian basis functions
    27 alpha electrons       26 beta electrons
       nuclear repulsion energy       301.1465343559 Hartrees.
 IExCor= 4639 DFT=T Ex+Corr=wB97XD ExCW=0 ScaHFX=  1.000000
 ScaDFX=  1.000000  1.000000  1.000000  1.000000 ScalE2=  1.000000  1.000000
 IRadAn=      5 IRanWt=     -1 IRanGd=            0 ICorTp=0 IEmpDi=121
 HFx  wShort=  0.000000 wLong=  0.200000 cFull=  0.222036 cShort=  0.000000 cLong=  0.777964
 DFx  wShort=  0.000000 wLong=  0.200000 cFull=  0.000000 cShort=  0.000000 cLong=  1.000000
 NAtoms=   14 NActive=   14 NUniq=   14 SFac= 1.00D+00 NAtFMM=   60 NAOKFM=F Big=F
 Integral buffers will be    131072 words long.
 Raffenetti 2 integral format.
 Two-electron integral symmetry is turned on.
 R6Disp:  Grimme-D2 Dispersion energy=       -0.0060623050 Hartrees.
 Nuclear repulsion after empirical dispersion term =      301.1404720509 Hartrees.
 Leave Link  301 at Fri Sep 19 15:05:55 2025, MaxMem=   268435456 cpu:               0.2 elap:               0.1
 (Enter /apps/eb/gaussian/16-AVX2/g16/l302.exe)
 NPDir=0 NMtPBC=     1 NCelOv=     1 NCel=       1 NClECP=     1 NCelD=      1
         NCelK=      1 NCelE2=     1 NClLst=     1 CellRange=     0.0.
 One-electron integrals computed using PRISM.
 One-electron integral symmetry used in STVInt
   1 Symmetry operations used in ECPInt.
 ECPInt:  NShTT=    2016 NPrTT=    7252 LenC2=    2009 LenP2D=    6014.
 LDataN:  DoStor=T MaxTD1= 4 Len=   56
 NBasis=   133 RedAO= T EigKep=  8.95D-04  NBF=   133
 NBsUse=   133 1.00D-06 EigRej= -1.00D+00 NBFU=   133
 Precomputing XC quadrature grid using
 IXCGrd= 4 IRadAn=           5 IRanWt=          -1 IRanGd=           0 AccXCQ= 0.00D+00.
 Generated NRdTot=       0 NPtTot=           0 NUsed=           0 NTot=          32
 NSgBfM=   140   140   140   140   140 MxSgAt=    14 MxSgA2=    14.
 Leave Link  302 at Fri Sep 19 15:05:56 2025, MaxMem=   268435456 cpu:               4.4 elap:               1.1
 (Enter /apps/eb/gaussian/16-AVX2/g16/l303.exe)
 DipDrv:  MaxL=1.
 Leave Link  303 at Fri Sep 19 15:05:56 2025, MaxMem=   268435456 cpu:               0.5 elap:               0.2
 (Enter /apps/eb/gaussian/16-AVX2/g16/l401.exe)
 ExpMin= 1.22D-01 ExpMax= 2.27D+03 ExpMxC= 3.41D+02 IAcc=3 IRadAn=         5 AccDes= 0.00D+00
 Harris functional with IExCor= 4639 and IRadAn=       5 diagonalized for initial guess.
 HarFok:  IExCor= 4639 AccDes= 0.00D+00 IRadAn=         5 IDoV= 1 UseB2=F ITyADJ=14
 ICtDFT=  3500011 ScaDFX=  1.000000  1.000000  1.000000  1.000000
 FoFCou: FMM=F IPFlag=           0 FMFlag=      100000 FMFlg1=           0
         NFxFlg=           0 DoJE=T BraDBF=F KetDBF=T FulRan=T
         wScrn=  0.000000 ICntrl=       500 IOpCl=  0 I1Cent=   200000004 NGrid=           0
         NMat0=    1 NMatS0=      1 NMatT0=    0 NMatD0=    1 NMtDS0=    0 NMtDT0=    0
 Petite list used in FoFCou.
 Harris En= -330.299190872271    
 JPrj=0 DoOrth=F DoCkMO=F.
 Initial guess <Sx>= 0.0000 <Sy>= 0.0000 <Sz>= 0.5000 <S**2>= 0.7500 S= 0.5000
 Leave Link  401 at Fri Sep 19 15:05:57 2025, MaxMem=   268435456 cpu:               4.8 elap:               1.2
 (Enter /apps/eb/gaussian/16-AVX2/g16/l502.exe)
 Integral symmetry usage will be decided dynamically.
 UHF open shell SCF:
 Using DIIS extrapolation, IDIIS=  1040.
 NGot=   268435456 LenX=   268393178 LenY=   268373137
 Requested convergence on RMS density matrix=1.00D-08 within  32 cycles.
 Requested convergence on MAX density matrix=1.00D-06.
 Requested convergence on             energy=1.00D-06.
 No special actions if energy rises.
 Fock matrices will be formed incrementally for  20 cycles.
 Integral accuracy reduced to 1.0D-05 until final iterations.

 Cycle   1  Pass 0  IDiag  1:
 FoFJK:  IHMeth= 1 ICntrl=       0 DoSepK=T KAlg= 0 I1Cent=           0 FoldK=F
 IRaf=         1 NMat=       1 IRICut=       1 DoRegI=T DoRafI=F ISym2E= 0 IDoP0=0 IntGTp=1.
 FoFCou: FMM=F IPFlag=           0 FMFlag=      100000 FMFlg1=           0
         NFxFlg=           0 DoJE=T BraDBF=F KetDBF=F FulRan=T
         wScrn=  0.000000 ICntrl=       500 IOpCl=  0 I1Cent=           0 NGrid=           0
         NMat0=    1 NMatS0=      1 NMatT0=    0 NMatD0=    1 NMtDS0=    0 NMtDT0=    0
 Symmetry not used in FoFCou.
 E= -344.471534553318    
 DIIS: error= 2.95D-02 at cycle   1 NSaved=   1.
 NSaved= 1 IEnMin= 1 EnMin= -344.471534553318     IErMin= 1 ErrMin= 2.95D-02
 ErrMax= 2.95D-02  0.00D+00 EMaxC= 1.00D-01 BMatC= 9.05D-01 BMatP= 9.05D-01
 IDIUse=3 WtCom= 7.05D-01 WtEn= 2.95D-01
 Coeff-Com:  0.100D+01
 Coeff-En:   0.100D+01
 Coeff:      0.100D+01
 Gap=     0.321 Goal=   None    Shift=    0.000
 Gap=     0.526 Goal=   None    Shift=    0.000
 GapD=    0.321 DampG=1.000 DampE=0.500 DampFc=0.5000 IDamp=-1.
 Damping current iteration by 5.00D-01
 RMSDP=6.75D-03 MaxDP=1.80D-01              OVMax= 1.84D-01

 Cycle   2  Pass 0  IDiag  1:
 RMSU=  3.28D-03    CP:  9.74D-01
 E= -344.527650948871     Delta-E=       -0.056116395553 Rises=F Damp=T
 DIIS: error= 1.19D-02 at cycle   2 NSaved=   2.
 NSaved= 2 IEnMin= 2 EnMin= -344.527650948871     IErMin= 2 ErrMin= 1.19D-02
 ErrMax= 1.19D-02  0.00D+00 EMaxC= 1.00D-01 BMatC= 1.16D-01 BMatP= 9.05D-01
 IDIUse=3 WtCom= 8.81D-01 WtEn= 1.19D-01
 Coeff-Com: -0.172D+00 0.117D+01
 Coeff-En:   0.000D+00 0.100D+01
 Coeff:     -0.152D+00 0.115D+01
 Gap=     0.364 Goal=   None    Shift=    0.000
 Gap=     0.465 Goal=   None    Shift=    0.000
 RMSDP=1.95D-03 MaxDP=5.45D-02 DE=-5.61D-02 OVMax= 1.26D-01

 Cycle   3  Pass 0  IDiag  1:
 RMSU=  1.82D-03    CP:  9.66D-01  1.20D+00
 E= -344.586075957717     Delta-E=       -0.058425008846 Rises=F Damp=F
 DIIS: error= 4.15D-03 at cycle   3 NSaved=   3.
 NSaved= 3 IEnMin= 3 EnMin= -344.586075957717     IErMin= 3 ErrMin= 4.15D-03
 ErrMax= 4.15D-03  0.00D+00 EMaxC= 1.00D-01 BMatC= 2.64D-02 BMatP= 1.16D-01
 IDIUse=3 WtCom= 9.58D-01 WtEn= 4.15D-02
 Coeff-Com: -0.170D+00 0.374D+00 0.796D+00
 Coeff-En:   0.000D+00 0.000D+00 0.100D+01
 Coeff:     -0.163D+00 0.358D+00 0.804D+00
 Gap=     0.313 Goal=   None    Shift=    0.000
 Gap=     0.373 Goal=   None    Shift=    0.000
 RMSDP=8.76D-04 MaxDP=2.38D-02 DE=-5.84D-02 OVMax= 1.88D-02

 Cycle   4  Pass 0  IDiag  1:
 RMSU=  4.99D-04    CP:  9.59D-01  1.41D+00  9.69D-01
 E= -344.591330769860     Delta-E=       -0.005254812143 Rises=F Damp=F
 DIIS: error= 1.94D-03 at cycle   4 NSaved=   4.
 NSaved= 4 IEnMin= 4 EnMin= -344.591330769860     IErMin= 4 ErrMin= 1.94D-03
 ErrMax= 1.94D-03  0.00D+00 EMaxC= 1.00D-01 BMatC= 3.84D-03 BMatP= 2.64D-02
 IDIUse=3 WtCom= 9.81D-01 WtEn= 1.94D-02
 Coeff-Com: -0.810D-01 0.155D+00 0.424D+00 0.502D+00
 Coeff-En:   0.000D+00 0.000D+00 0.000D+00 0.100D+01
 Coeff:     -0.794D-01 0.152D+00 0.416D+00 0.512D+00
 Gap=     0.313 Goal=   None    Shift=    0.000
 Gap=     0.346 Goal=   None    Shift=    0.000
 RMSDP=1.97D-04 MaxDP=6.47D-03 DE=-5.25D-03 OVMax= 6.19D-03

 Cycle   5  Pass 0  IDiag  1:
 RMSU=  1.76D-04    CP:  9.58D-01  1.42D+00  1.01D+00  9.28D-01
 E= -344.592176277586     Delta-E=       -0.000845507726 Rises=F Damp=F
 DIIS: error= 6.77D-04 at cycle   5 NSaved=   5.
 NSaved= 5 IEnMin= 5 EnMin= -344.592176277586     IErMin= 5 ErrMin= 6.77D-04
 ErrMax= 6.77D-04  0.00D+00 EMaxC= 1.00D-01 BMatC= 2.76D-04 BMatP= 3.84D-03
 IDIUse=3 WtCom= 9.93D-01 WtEn= 6.77D-03
 Coeff-Com:  0.179D-01-0.421D-01-0.838D-01 0.678D-01 0.104D+01
 Coeff-En:   0.000D+00 0.000D+00 0.000D+00 0.000D+00 0.100D+01
 Coeff:      0.177D-01-0.418D-01-0.833D-01 0.673D-01 0.104D+01
 Gap=     0.317 Goal=   None    Shift=    0.000
 Gap=     0.349 Goal=   None    Shift=    0.000
 RMSDP=1.83D-04 MaxDP=4.97D-03 DE=-8.46D-04 OVMax= 1.08D-02

 Cycle   6  Pass 0  IDiag  1:
 RMSU=  1.06D-04    CP:  9.58D-01  1.43D+00  1.06D+00  1.12D+00  1.37D+00
 E= -344.592458082947     Delta-E=       -0.000281805362 Rises=F Damp=F
 DIIS: error= 3.80D-04 at cycle   6 NSaved=   6.
 NSaved= 6 IEnMin= 6 EnMin= -344.592458082947     IErMin= 6 ErrMin= 3.80D-04
 ErrMax= 3.80D-04  0.00D+00 EMaxC= 1.00D-01 BMatC= 8.10D-05 BMatP= 2.76D-04
 IDIUse=3 WtCom= 9.96D-01 WtEn= 3.80D-03
 Coeff-Com:  0.290D-01-0.562D-01-0.152D+00-0.158D+00 0.172D+00 0.116D+01
 Coeff-En:   0.000D+00 0.000D+00 0.000D+00 0.000D+00 0.000D+00 0.100D+01
 Coeff:      0.289D-01-0.560D-01-0.152D+00-0.157D+00 0.171D+00 0.116D+01
 Gap=     0.319 Goal=   None    Shift=    0.000
 Gap=     0.352 Goal=   None    Shift=    0.000
 RMSDP=1.42D-04 MaxDP=4.80D-03 DE=-2.82D-04 OVMax= 1.00D-02

 Cycle   7  Pass 0  IDiag  1:
 RMSU=  5.50D-05    CP:  9.57D-01  1.43D+00  1.09D+00  1.28D+00  1.81D+00
                    CP:  1.47D+00
 E= -344.592569730374     Delta-E=       -0.000111647427 Rises=F Damp=F
 DIIS: error= 1.28D-04 at cycle   7 NSaved=   7.
 NSaved= 7 IEnMin= 7 EnMin= -344.592569730374     IErMin= 7 ErrMin= 1.28D-04
 ErrMax= 1.28D-04  0.00D+00 EMaxC= 1.00D-01 BMatC= 1.54D-05 BMatP= 8.10D-05
 IDIUse=3 WtCom= 9.99D-01 WtEn= 1.28D-03
 Coeff-Com:  0.448D-02-0.743D-02-0.246D-01-0.484D-01-0.143D+00 0.347D+00
 Coeff-Com:  0.872D+00
 Coeff-En:   0.000D+00 0.000D+00 0.000D+00 0.000D+00 0.000D+00 0.000D+00
 Coeff-En:   0.100D+01
 Coeff:      0.447D-02-0.742D-02-0.246D-01-0.484D-01-0.143D+00 0.347D+00
 Coeff:      0.872D+00
 Gap=     0.320 Goal=   None    Shift=    0.000
 Gap=     0.352 Goal=   None    Shift=    0.000
 RMSDP=4.17D-05 MaxDP=1.54D-03 DE=-1.12D-04 OVMax= 3.37D-03

 Cycle   8  Pass 0  IDiag  1:
 RMSU=  2.15D-05    CP:  9.57D-01  1.43D+00  1.09D+00  1.30D+00  1.91D+00
                    CP:  1.72D+00  1.20D+00
 E= -344.592583989804     Delta-E=       -0.000014259430 Rises=F Damp=F
 DIIS: error= 5.90D-05 at cycle   8 NSaved=   8.
 NSaved= 8 IEnMin= 8 EnMin= -344.592583989804     IErMin= 8 ErrMin= 5.90D-05
 ErrMax= 5.90D-05  0.00D+00 EMaxC= 1.00D-01 BMatC= 2.54D-06 BMatP= 1.54D-05
 IDIUse=1 WtCom= 1.00D+00 WtEn= 0.00D+00
 Coeff-Com: -0.495D-02 0.978D-02 0.262D-01 0.253D-01-0.583D-01-0.187D+00
 Coeff-Com:  0.973D-01 0.109D+01
 Coeff:     -0.495D-02 0.978D-02 0.262D-01 0.253D-01-0.583D-01-0.187D+00
 Coeff:      0.973D-01 0.109D+01
 Gap=     0.320 Goal=   None    Shift=    0.000
 Gap=     0.352 Goal=   None    Shift=    0.000
 RMSDP=2.39D-05 MaxDP=9.92D-04 DE=-1.43D-05 OVMax= 1.93D-03

 Cycle   9  Pass 0  IDiag  1:
 RMSU=  1.07D-05    CP:  9.58D-01  1.43D+00  1.09D+00  1.30D+00  1.93D+00
                    CP:  1.81D+00  1.48D+00  1.42D+00
 E= -344.592587368856     Delta-E=       -0.000003379052 Rises=F Damp=F
 DIIS: error= 3.15D-05 at cycle   9 NSaved=   9.
 NSaved= 9 IEnMin= 9 EnMin= -344.592587368856     IErMin= 9 ErrMin= 3.15D-05
 ErrMax= 3.15D-05  0.00D+00 EMaxC= 1.00D-01 BMatC= 5.92D-07 BMatP= 2.54D-06
 IDIUse=1 WtCom= 1.00D+00 WtEn= 0.00D+00
 Coeff-Com: -0.173D-02 0.328D-02 0.950D-02 0.129D-01 0.533D-02-0.942D-01
 Coeff-Com: -0.105D+00 0.328D+00 0.842D+00
 Coeff:     -0.173D-02 0.328D-02 0.950D-02 0.129D-01 0.533D-02-0.942D-01
 Coeff:     -0.105D+00 0.328D+00 0.842D+00
 Gap=     0.320 Goal=   None    Shift=    0.000
 Gap=     0.352 Goal=   None    Shift=    0.000
 RMSDP=8.68D-06 MaxDP=2.31D-04 DE=-3.38D-06 OVMax= 6.87D-04

 Initial convergence to 1.0D-05 achieved.  Increase integral accuracy.
 Cycle  10  Pass 1  IDiag  1:
 E= -344.592587991019     Delta-E=       -0.000000622163 Rises=F Damp=F
 DIIS: error= 1.82D-05 at cycle   1 NSaved=   1.
 NSaved= 1 IEnMin= 1 EnMin= -344.592587991019     IErMin= 1 ErrMin= 1.82D-05
 ErrMax= 1.82D-05  0.00D+00 EMaxC= 1.00D-01 BMatC= 4.65D-07 BMatP= 4.65D-07
 IDIUse=1 WtCom= 1.00D+00 WtEn= 0.00D+00
 Coeff-Com:  0.100D+01
 Coeff:      0.100D+01
 Gap=     0.320 Goal=   None    Shift=    0.000
 Gap=     0.352 Goal=   None    Shift=    0.000
 RMSDP=8.68D-06 MaxDP=2.31D-04 DE=-6.22D-07 OVMax= 3.68D-04

 Cycle  11  Pass 1  IDiag  1:
 RMSU=  6.54D-06    CP:  1.00D+00
 E= -344.592588244349     Delta-E=       -0.000000253330 Rises=F Damp=F
 DIIS: error= 1.44D-05 at cycle   2 NSaved=   2.
 NSaved= 2 IEnMin= 2 EnMin= -344.592588244349     IErMin= 2 ErrMin= 1.44D-05
 ErrMax= 1.44D-05  0.00D+00 EMaxC= 1.00D-01 BMatC= 8.32D-08 BMatP= 4.65D-07
 IDIUse=1 WtCom= 1.00D+00 WtEn= 0.00D+00
 Coeff-Com:  0.257D-01 0.974D+00
 Coeff:      0.257D-01 0.974D+00
 Gap=     0.320 Goal=   None    Shift=    0.000
 Gap=     0.352 Goal=   None    Shift=    0.000
 RMSDP=3.03D-06 MaxDP=8.61D-05 DE=-2.53D-07 OVMax= 2.49D-04

 Cycle  12  Pass 1  IDiag  1:
 RMSU=  2.18D-06    CP:  1.00D+00  1.32D+00
 E= -344.592588330290     Delta-E=       -0.000000085941 Rises=F Damp=F
 DIIS: error= 1.02D-05 at cycle   3 NSaved=   3.
 NSaved= 3 IEnMin= 3 EnMin= -344.592588330290     IErMin= 3 ErrMin= 1.02D-05
 ErrMax= 1.02D-05  0.00D+00 EMaxC= 1.00D-01 BMatC= 4.73D-08 BMatP= 8.32D-08
 IDIUse=1 WtCom= 1.00D+00 WtEn= 0.00D+00
 Coeff-Com: -0.134D+00 0.373D+00 0.761D+00
 Coeff:     -0.134D+00 0.373D+00 0.761D+00
 Gap=     0.320 Goal=   None    Shift=    0.000
 Gap=     0.352 Goal=   None    Shift=    0.000
 RMSDP=2.32D-06 MaxDP=8.92D-05 DE=-8.59D-08 OVMax= 1.84D-04

 Cycle  13  Pass 1  IDiag  1:
 RMSU=  1.21D-06    CP:  1.00D+00  1.61D+00  1.26D+00
 E= -344.592588376782     Delta-E=       -0.000000046492 Rises=F Damp=F
 DIIS: error= 6.06D-06 at cycle   4 NSaved=   4.
 NSaved= 4 IEnMin= 4 EnMin= -344.592588376782     IErMin= 4 ErrMin= 6.06D-06
 ErrMax= 6.06D-06  0.00D+00 EMaxC= 1.00D-01 BMatC= 1.44D-08 BMatP= 4.73D-08
 IDIUse=1 WtCom= 1.00D+00 WtEn= 0.00D+00
 Coeff-Com:  0.120D-01-0.439D+00-0.122D+00 0.155D+01
 Coeff:      0.120D-01-0.439D+00-0.122D+00 0.155D+01
 Gap=     0.320 Goal=   None    Shift=    0.000
 Gap=     0.352 Goal=   None    Shift=    0.000
 RMSDP=3.15D-06 MaxDP=9.96D-05 DE=-4.65D-08 OVMax= 2.45D-04

 Cycle  14  Pass 1  IDiag  1:
 RMSU=  6.62D-07    CP:  1.00D+00  1.97D+00  2.00D+00  1.95D+00
 E= -344.592588413877     Delta-E=       -0.000000037095 Rises=F Damp=F
 DIIS: error= 2.25D-06 at cycle   5 NSaved=   5.
 NSaved= 5 IEnMin= 5 EnMin= -344.592588413877     IErMin= 5 ErrMin= 2.25D-06
 ErrMax= 2.25D-06  0.00D+00 EMaxC= 1.00D-01 BMatC= 6.76D-09 BMatP= 1.44D-08
 IDIUse=1 WtCom= 1.00D+00 WtEn= 0.00D+00
 Coeff-Com:  0.567D-01-0.407D+00-0.339D+00 0.945D+00 0.743D+00
 Coeff:      0.567D-01-0.407D+00-0.339D+00 0.945D+00 0.743D+00
 Gap=     0.320 Goal=   None    Shift=    0.000
 Gap=     0.352 Goal=   None    Shift=    0.000
 RMSDP=1.58D-06 MaxDP=5.18D-05 DE=-3.71D-08 OVMax= 1.24D-04

 Cycle  15  Pass 1  IDiag  1:
 RMSU=  3.28D-07    CP:  1.00D+00  2.14D+00  2.36D+00  2.52D+00  1.20D+00
 E= -344.592588421724     Delta-E=       -0.000000007847 Rises=F Damp=F
 DIIS: error= 8.81D-07 at cycle   6 NSaved=   6.
 NSaved= 6 IEnMin= 6 EnMin= -344.592588421724     IErMin= 6 ErrMin= 8.81D-07
 ErrMax= 8.81D-07  0.00D+00 EMaxC= 1.00D-01 BMatC= 5.56D-10 BMatP= 6.76D-09
 IDIUse=1 WtCom= 1.00D+00 WtEn= 0.00D+00
 Coeff-Com:  0.159D-01-0.624D-01-0.799D-01 0.527D-01 0.212D+00 0.862D+00
 Coeff:      0.159D-01-0.624D-01-0.799D-01 0.527D-01 0.212D+00 0.862D+00
 Gap=     0.320 Goal=   None    Shift=    0.000
 Gap=     0.352 Goal=   None    Shift=    0.000
 RMSDP=4.38D-07 MaxDP=1.55D-05 DE=-7.85D-09 OVMax= 3.68D-05

 Cycle  16  Pass 1  IDiag  1:
 RMSU=  1.39D-07    CP:  1.00D+00  2.18D+00  2.44D+00  2.68D+00  1.42D+00
                    CP:  1.38D+00
 E= -344.592588422419     Delta-E=       -0.000000000696 Rises=F Damp=F
 DIIS: error= 4.63D-07 at cycle   7 NSaved=   7.
 NSaved= 7 IEnMin= 7 EnMin= -344.592588422419     IErMin= 7 ErrMin= 4.63D-07
 ErrMax= 4.63D-07  0.00D+00 EMaxC= 1.00D-01 BMatC= 1.67D-10 BMatP= 5.56D-10
 IDIUse=1 WtCom= 1.00D+00 WtEn= 0.00D+00
 Coeff-Com: -0.851D-02 0.798D-01 0.594D-01-0.225D+00-0.115D+00 0.346D+00
 Coeff-Com:  0.863D+00
 Coeff:     -0.851D-02 0.798D-01 0.594D-01-0.225D+00-0.115D+00 0.346D+00
 Coeff:      0.863D+00
 Gap=     0.320 Goal=   None    Shift=    0.000
 Gap=     0.352 Goal=   None    Shift=    0.000
 RMSDP=2.08D-07 MaxDP=4.97D-06 DE=-6.96D-10 OVMax= 1.48D-05

 Cycle  17  Pass 1  IDiag  1:
 RMSU=  6.01D-08    CP:  1.00D+00  2.19D+00  2.47D+00  2.75D+00  1.59D+00
                    CP:  1.70D+00  1.15D+00
 E= -344.592588422572     Delta-E=       -0.000000000153 Rises=F Damp=F
 DIIS: error= 1.59D-07 at cycle   8 NSaved=   8.
 NSaved= 8 IEnMin= 8 EnMin= -344.592588422572     IErMin= 8 ErrMin= 1.59D-07
 ErrMax= 1.59D-07  0.00D+00 EMaxC= 1.00D-01 BMatC= 1.51D-11 BMatP= 1.67D-10
 IDIUse=1 WtCom= 1.00D+00 WtEn= 0.00D+00
 Coeff-Com: -0.329D-02 0.178D-01 0.194D-01-0.314D-01-0.470D-01-0.105D+00
 Coeff-Com:  0.534D-01 0.110D+01
 Coeff:     -0.329D-02 0.178D-01 0.194D-01-0.314D-01-0.470D-01-0.105D+00
 Coeff:      0.534D-01 0.110D+01
 Gap=     0.320 Goal=   None    Shift=    0.000
 Gap=     0.352 Goal=   None    Shift=    0.000
 RMSDP=9.27D-08 MaxDP=2.01D-06 DE=-1.53D-10 OVMax= 6.66D-06

 Cycle  18  Pass 1  IDiag  1:
 RMSU=  2.75D-08    CP:  1.00D+00  2.19D+00  2.47D+00  2.77D+00  1.65D+00
                    CP:  1.85D+00  1.38D+00  1.55D+00
 E= -344.592588422594     Delta-E=       -0.000000000021 Rises=F Damp=F
 DIIS: error= 6.43D-08 at cycle   9 NSaved=   9.
 NSaved= 9 IEnMin= 9 EnMin= -344.592588422594     IErMin= 9 ErrMin= 6.43D-08
 ErrMax= 6.43D-08  0.00D+00 EMaxC= 1.00D-01 BMatC= 3.44D-12 BMatP= 1.51D-11
 IDIUse=1 WtCom= 1.00D+00 WtEn= 0.00D+00
 Coeff-Com:  0.453D-03-0.710D-02-0.366D-02 0.237D-01 0.555D-02-0.705D-01
 Coeff-Com: -0.109D+00 0.286D+00 0.875D+00
 Coeff:      0.453D-03-0.710D-02-0.366D-02 0.237D-01 0.555D-02-0.705D-01
 Coeff:     -0.109D+00 0.286D+00 0.875D+00
 Gap=     0.320 Goal=   None    Shift=    0.000
 Gap=     0.352 Goal=   None    Shift=    0.000
 RMSDP=2.78D-08 MaxDP=5.57D-07 DE=-2.14D-11 OVMax= 1.79D-06

 Cycle  19  Pass 1  IDiag  1:
 RMSU=  1.07D-08    CP:  1.00D+00  2.19D+00  2.47D+00  2.77D+00  1.67D+00
                    CP:  1.89D+00  1.45D+00  1.81D+00  1.13D+00
 E= -344.592588422598     Delta-E=       -0.000000000004 Rises=F Damp=F
 DIIS: error= 4.69D-08 at cycle  10 NSaved=  10.
 NSaved=10 IEnMin=10 EnMin= -344.592588422598     IErMin=10 ErrMin= 4.69D-08
 ErrMax= 4.69D-08  0.00D+00 EMaxC= 1.00D-01 BMatC= 9.96D-13 BMatP= 3.44D-12
 IDIUse=1 WtCom= 1.00D+00 WtEn= 0.00D+00
 Coeff-Com:  0.963D-03-0.645D-02-0.589D-02 0.145D-01 0.135D-01 0.532D-02
 Coeff-Com: -0.481D-01-0.194D+00 0.250D+00 0.970D+00
 Coeff:      0.963D-03-0.645D-02-0.589D-02 0.145D-01 0.135D-01 0.532D-02
 Coeff:     -0.481D-01-0.194D+00 0.250D+00 0.970D+00
 Gap=     0.320 Goal=   None    Shift=    0.000
 Gap=     0.352 Goal=   None    Shift=    0.000
 RMSDP=1.55D-08 MaxDP=3.55D-07 DE=-3.98D-12 OVMax= 8.41D-07

 Cycle  20  Pass 1  IDiag  1:
 RMSU=  4.97D-09    CP:  1.00D+00  2.19D+00  2.47D+00  2.78D+00  1.67D+00
                    CP:  1.90D+00  1.48D+00  1.96D+00  1.39D+00  1.34D+00
 E= -344.592588422599     Delta-E=       -0.000000000001 Rises=F Damp=F
 DIIS: error= 1.90D-08 at cycle  11 NSaved=  11.
 NSaved=11 IEnMin=11 EnMin= -344.592588422599     IErMin=11 ErrMin= 1.90D-08
 ErrMax= 1.90D-08  0.00D+00 EMaxC= 1.00D-01 BMatC= 1.76D-13 BMatP= 9.96D-13
 IDIUse=1 WtCom= 1.00D+00 WtEn= 0.00D+00
 Coeff-Com: -0.188D-03 0.229D-02 0.140D-02-0.702D-02-0.278D-02 0.162D-01
 Coeff-Com:  0.325D-01-0.416D-01-0.225D+00-0.117D+00 0.134D+01
 Coeff:     -0.188D-03 0.229D-02 0.140D-02-0.702D-02-0.278D-02 0.162D-01
 Coeff:      0.325D-01-0.416D-01-0.225D+00-0.117D+00 0.134D+01
 Gap=     0.320 Goal=   None    Shift=    0.000
 Gap=     0.352 Goal=   None    Shift=    0.000
 RMSDP=7.51D-09 MaxDP=2.55D-07 DE=-1.48D-12 OVMax= 2.90D-07

 SCF Done:  E(UwB97XD) =  -344.592588423     A.U. after   20 cycles
            NFock= 20  Conv=0.75D-08     -V/T= 2.0082
 <Sx>= 0.0000 <Sy>= 0.0000 <Sz>= 0.5000 <S**2>= 0.7824 S= 0.5161
 <L.S>=  0.00000000000    
 KE= 3.417731436683D+02 PE=-1.406812561795D+03 EE= 4.193063576537D+02
 Annihilation of the first spin contaminant:
 S**2 before annihilation     0.7824,   after     0.7503
 Leave Link  502 at Fri Sep 19 15:06:41 2025, MaxMem=   268435456 cpu:             172.4 elap:              43.5
 (Enter /apps/eb/gaussian/16-AVX2/g16/l508.exe)
 QCSCF skips out because SCF is already converged.
 Leave Link  508 at Fri Sep 19 15:06:41 2025, MaxMem=   268435456 cpu:               0.1 elap:               0.0
 (Enter /apps/eb/gaussian/16-AVX2/g16/l601.exe)
 Copying SCF densities to generalized density rwf, IOpCl= 1 IROHF=0.

 **********************************************************************

            Population analysis using the SCF Density.

 **********************************************************************

 Orbital symmetries:
 Alpha Orbitals:
       Occupied  (A) (A) (A) (A) (A) (A) (A) (A) (A) (A) (A) (A)
                 (A) (A) (A) (A) (A) (A) (A) (A) (A) (A) (A) (A)
                 (A) (A) (A)
       Virtual   (A) (A) (A) (A) (A) (A) (A) (A) (A) (A) (A) (A)
                 (A) (A) (A) (A) (A) (A) (A) (A) (A) (A) (A) (A)
                 (A) (A) (A) (A) (A) (A) (A) (A) (A) (A) (A) (A)
                 (A) (A) (A) (A) (A) (A) (A) (A) (A) (A) (A) (A)
                 (A) (A) (A) (A) (A) (A) (A) (A) (A) (A) (A) (A)
                 (A) (A) (A) (A) (A) (A) (A) (A) (A) (A) (A) (A)
                 (A) (A) (A) (A) (A) (A) (A) (A) (A) (A) (A) (A)
                 (A) (A) (A) (A) (A) (A) (A) (A) (A) (A) (A) (A)
                 (A) (A) (A) (A) (A) (A) (A) (A) (A) (A)
 Beta  Orbitals:
       Occupied  (A) (A) (A) (A) (A) (A) (A) (A) (A) (A) (A) (A)
                 (A) (A) (A) (A) (A) (A) (A) (A) (A) (A) (A) (A)
                 (A) (A)
       Virtual   (A) (A) (A) (A) (A) (A) (A) (A) (A) (A) (A) (A)
                 (A) (A) (A) (A) (A) (A) (A) (A) (A) (A) (A) (A)
                 (A) (A) (A) (A) (A) (A) (A) (A) (A) (A) (A) (A)
                 (A) (A) (A) (A) (A) (A) (A) (A) (A) (A) (A) (A)
                 (A) (A) (A) (A) (A) (A) (A) (A) (A) (A) (A) (A)
                 (A) (A) (A) (A) (A) (A) (A) (A) (A) (A) (A) (A)
                 (A) (A) (A) (A) (A) (A) (A) (A) (A) (A) (A) (A)
                 (A) (A) (A) (A) (A) (A) (A) (A) (A) (A) (A) (A)
                 (A) (A) (A) (A) (A) (A) (A) (A) (A) (A) (A)
 The electronic state is 2-A.
 Alpha  occ. eigenvalues --  -19.31877 -19.30531 -10.35446 -10.31904 -10.30531
 Alpha  occ. eigenvalues --  -10.30201 -10.30082  -1.22509  -1.02830  -0.96457
 Alpha  occ. eigenvalues --   -0.83843  -0.79874  -0.67983  -0.64565  -0.63158
 Alpha  occ. eigenvalues --   -0.59335  -0.57985  -0.53785  -0.50214  -0.48931
 Alpha  occ. eigenvalues --   -0.47917  -0.45753  -0.43403  -0.38493  -0.36759
 Alpha  occ. eigenvalues --   -0.36182  -0.23011
 Alpha virt. eigenvalues --    0.08983   0.12045   0.15023   0.16460   0.17030
 Alpha virt. eigenvalues --    0.18950   0.20671   0.21440   0.23280   0.26080
 Alpha virt. eigenvalues --    0.30081   0.32092   0.37759   0.41752   0.46775
 Alpha virt. eigenvalues --    0.47740   0.49991   0.54169   0.54807   0.57876
 Alpha virt. eigenvalues --    0.58283   0.60776   0.63293   0.67430   0.68863
 Alpha virt. eigenvalues --    0.69476   0.70254   0.71247   0.71675   0.75123
 Alpha virt. eigenvalues --    0.76421   0.77611   0.78115   0.79305   0.82132
 Alpha virt. eigenvalues --    0.83125   0.85816   0.89861   0.95509   1.01468
 Alpha virt. eigenvalues --    1.03570   1.05836   1.11990   1.13496   1.15610
 Alpha virt. eigenvalues --    1.17311   1.26744   1.28792   1.33238   1.35432
 Alpha virt. eigenvalues --    1.39181   1.43943   1.50631   1.53616   1.60704
 Alpha virt. eigenvalues --    1.62628   1.64684   1.68435   1.73475   1.76804
 Alpha virt. eigenvalues --    1.77562   1.80878   1.83997   1.87494   1.87615
 Alpha virt. eigenvalues --    1.90323   1.91284   1.93244   1.97885   1.99861
 Alpha virt. eigenvalues --    2.05183   2.09408   2.11645   2.15895   2.18758
 Alpha virt. eigenvalues --    2.19355   2.22141   2.27013   2.28590   2.31567
 Alpha virt. eigenvalues --    2.39945   2.44250   2.51890   2.54918   2.56030
 Alpha virt. eigenvalues --    2.57306   2.59362   2.61041   2.67124   2.67520
 Alpha virt. eigenvalues --    2.76774   2.78030   2.81642   2.90767   2.93998
 Alpha virt. eigenvalues --    3.02116   3.03730   3.06535   3.12147   3.20241
 Alpha virt. eigenvalues --    3.28064   3.28951   3.44239   3.53672   3.67049
 Alpha virt. eigenvalues --    3.94044
  Beta  occ. eigenvalues --  -19.31861 -19.30417 -10.35223 -10.31228 -10.30579
  Beta  occ. eigenvalues --  -10.30478 -10.29450  -1.22279  -1.02254  -0.95714
  Beta  occ. eigenvalues --   -0.82448  -0.79647  -0.66630  -0.64131  -0.62373
  Beta  occ. eigenvalues --   -0.58697  -0.57377  -0.53434  -0.49398  -0.48479
  Beta  occ. eigenvalues --   -0.47368  -0.45311  -0.41639  -0.38345  -0.36453
  Beta  occ. eigenvalues --   -0.34042
  Beta virt. eigenvalues --    0.01206   0.10279   0.13099   0.15572   0.16727
  Beta virt. eigenvalues --    0.17601   0.19303   0.20941   0.21748   0.23583
  Beta virt. eigenvalues --    0.26521   0.30506   0.32754   0.38295   0.42248
  Beta virt. eigenvalues --    0.47209   0.48123   0.50584   0.54876   0.55315
  Beta virt. eigenvalues --    0.58182   0.59097   0.62590   0.63638   0.67928
  Beta virt. eigenvalues --    0.69941   0.70014   0.70782   0.71682   0.72582
  Beta virt. eigenvalues --    0.75610   0.76661   0.77881   0.78455   0.79752
  Beta virt. eigenvalues --    0.82510   0.83667   0.86441   0.90203   0.95754
  Beta virt. eigenvalues --    1.01685   1.03887   1.06070   1.12200   1.13783
  Beta virt. eigenvalues --    1.15861   1.17456   1.27267   1.29054   1.34483
  Beta virt. eigenvalues --    1.35738   1.39372   1.44292   1.51080   1.53817
  Beta virt. eigenvalues --    1.61117   1.63584   1.64931   1.68826   1.73788
  Beta virt. eigenvalues --    1.77132   1.78166   1.81324   1.84293   1.87920
  Beta virt. eigenvalues --    1.88749   1.90835   1.92181   1.93979   1.98774
  Beta virt. eigenvalues --    2.00532   2.05853   2.09910   2.11941   2.16171
  Beta virt. eigenvalues --    2.19382   2.19644   2.23176   2.27823   2.28736
  Beta virt. eigenvalues --    2.32676   2.41373   2.45107   2.52573   2.55667
  Beta virt. eigenvalues --    2.56379   2.57800   2.60186   2.61767   2.67640
  Beta virt. eigenvalues --    2.68207   2.77252   2.78489   2.82647   2.91365
  Beta virt. eigenvalues --    2.94524   3.02255   3.04018   3.06904   3.12546
  Beta virt. eigenvalues --    3.20527   3.28308   3.29264   3.44481   3.54026
  Beta virt. eigenvalues --    3.67116   3.94228
          Condensed to atoms (all electrons):
               1          2          3          4          5          6
     1  C    5.068297  -0.016005   0.315726   0.014862  -0.049994   0.344065
     2  C   -0.016005   5.677951  -0.036334   0.290832   0.427054  -0.085040
     3  O    0.315726  -0.036334   7.916363   0.003975   0.001841  -0.016957
     4  C    0.014862   0.290832   0.003975   4.902050  -0.038857   0.021174
     5  H   -0.049994   0.427054   0.001841  -0.038857   0.611559  -0.006812
     6  H    0.344065  -0.085040  -0.016957   0.021174  -0.006812   0.710463
     7  C   -0.061319   0.018378   0.004208   0.448289   0.006374  -0.011640
     8  H    0.006173  -0.054288  -0.000073   0.440229  -0.005302  -0.001248
     9  C    0.372899  -0.158379  -0.042845  -0.028279   0.011044  -0.010912
    10  H    0.005601   0.009518  -0.000068  -0.044116  -0.000204  -0.000442
    11  H   -0.008315  -0.006363  -0.006291   0.003575  -0.000282   0.007295
    12  H   -0.021847   0.015270   0.002797  -0.000481  -0.000247  -0.010524
    13  O   -0.065988   0.003563   0.100295  -0.000647   0.000035   0.007967
    14  H   -0.004322   0.009573  -0.019585  -0.000872   0.000140  -0.001169
               7          8          9         10         11         12
     1  C   -0.061319   0.006173   0.372899   0.005601  -0.008315  -0.021847
     2  C    0.018378  -0.054288  -0.158379   0.009518  -0.006363   0.015270
     3  O    0.004208  -0.000073  -0.042845  -0.000068  -0.006291   0.002797
     4  C    0.448289   0.440229  -0.028279  -0.044116   0.003575  -0.000481
     5  H    0.006374  -0.005302   0.011044  -0.000204  -0.000282  -0.000247
     6  H   -0.011640  -0.001248  -0.010912  -0.000442   0.007295  -0.010524
     7  C    5.141394  -0.056938   0.281991   0.421216  -0.020056  -0.019336
     8  H   -0.056938   0.644190   0.010423  -0.006212  -0.000300  -0.000187
     9  C    0.281991   0.010423   4.795183  -0.040672   0.354291   0.372951
    10  H    0.421216  -0.006212  -0.040672   0.627993  -0.000720  -0.001655
    11  H   -0.020056  -0.000300   0.354291  -0.000720   0.627778  -0.026931
    12  H   -0.019336  -0.000187   0.372951  -0.001655  -0.026931   0.634985
    13  O   -0.000445  -0.000020  -0.002661  -0.000009   0.010702  -0.000250
    14  H    0.000297   0.000006  -0.001300   0.000002  -0.000407   0.000015
              13         14
     1  C   -0.065988  -0.004322
     2  C    0.003563   0.009573
     3  O    0.100295  -0.019585
     4  C   -0.000647  -0.000872
     5  H    0.000035   0.000140
     6  H    0.007967  -0.001169
     7  C   -0.000445   0.000297
     8  H   -0.000020   0.000006
     9  C   -0.002661  -0.001300
    10  H   -0.000009   0.000002
    11  H    0.010702  -0.000407
    12  H   -0.000250   0.000015
    13  O    7.809754   0.309172
    14  H    0.309172   0.512704
          Atomic-Atomic Spin Densities.
               1          2          3          4          5          6
     1  C    0.304156  -0.249190  -0.012903   0.020897  -0.002604   0.094613
     2  C   -0.249190   0.937163   0.009634  -0.025419   0.007884  -0.088881
     3  O   -0.012903   0.009634   0.018540  -0.001084   0.000397  -0.008692
     4  C    0.020897  -0.025419  -0.001084  -0.236964  -0.001142   0.007606
     5  H   -0.002604   0.007884   0.000397  -0.001142  -0.031273   0.000107
     6  H    0.094613  -0.088881  -0.008692   0.007606   0.000107  -0.018045
     7  C    0.024327  -0.064379   0.000155  -0.017357  -0.000168   0.010639
     8  H   -0.000506   0.001469   0.000008  -0.001745   0.000256  -0.000213
     9  C   -0.020969   0.030569   0.002840  -0.005518  -0.000244  -0.013534
    10  H   -0.000504   0.000508   0.000008  -0.000986   0.000014  -0.000105
    11  H   -0.000927  -0.003731  -0.002388   0.003717  -0.000031   0.002639
    12  H   -0.013443   0.006685   0.000782  -0.001203   0.000023  -0.002750
    13  O   -0.001378   0.000730  -0.019808   0.000261  -0.000033   0.001164
    14  H   -0.000360  -0.000195   0.000450   0.000030  -0.000040   0.000084
               7          8          9         10         11         12
     1  C    0.024327  -0.000506  -0.020969  -0.000504  -0.000927  -0.013443
     2  C   -0.064379   0.001469   0.030569   0.000508  -0.003731   0.006685
     3  O    0.000155   0.000008   0.002840   0.000008  -0.002388   0.000782
     4  C   -0.017357  -0.001745  -0.005518  -0.000986   0.003717  -0.001203
     5  H   -0.000168   0.000256  -0.000244   0.000014  -0.000031   0.000023
     6  H    0.010639  -0.000213  -0.013534  -0.000105   0.002639  -0.002750
     7  C    0.679699  -0.000647  -0.037964   0.004733  -0.017596  -0.015459
     8  H   -0.000647   0.010016   0.000251   0.000293  -0.000088   0.000037
     9  C   -0.037964   0.000251  -0.034174   0.000607  -0.003593   0.021745
    10  H    0.004733   0.000293   0.000607  -0.029606  -0.000797   0.000661
    11  H   -0.017596  -0.000088  -0.003593  -0.000797   0.087583  -0.015600
    12  H   -0.015459   0.000037   0.021745   0.000661  -0.015600   0.046361
    13  O   -0.000139  -0.000002  -0.001098  -0.000002   0.001592  -0.000226
    14  H   -0.000008  -0.000000   0.000053  -0.000000   0.000004  -0.000002
              13         14
     1  C   -0.001378  -0.000360
     2  C    0.000730  -0.000195
     3  O   -0.019808   0.000450
     4  C    0.000261   0.000030
     5  H   -0.000033  -0.000040
     6  H    0.001164   0.000084
     7  C   -0.000139  -0.000008
     8  H   -0.000002  -0.000000
     9  C   -0.001098   0.000053
    10  H   -0.000002  -0.000000
    11  H    0.001592   0.000004
    12  H   -0.000226  -0.000002
    13  O    0.062070   0.000329
    14  H    0.000329  -0.001824
 Mulliken charges and spin densities:
               1          2
     1  C    0.100168   0.141210
     2  C   -0.095729   0.562845
     3  O   -0.223050  -0.012060
     4  C   -0.011734  -0.258907
     5  H    0.043652  -0.026855
     6  H    0.053779  -0.015367
     7  C   -0.152414   0.565835
     8  H    0.023549   0.009128
     9  C    0.086266  -0.061030
    10  H    0.029769  -0.025176
    11  H    0.066023   0.050785
    12  H    0.055441   0.027610
    13  O   -0.171467   0.043460
    14  H    0.195748  -0.001478
 Sum of Mulliken charges =  -0.00000   1.00000
 Mulliken charges and spin densities with hydrogens summed into heavy atoms:
               1          2
     1  C    0.153947   0.125843
     2  C   -0.052077   0.535991
     3  O   -0.223050  -0.012060
     4  C    0.011815  -0.249779
     7  C   -0.122645   0.540658
     9  C    0.207730   0.017365
    13  O    0.024281   0.041982
 Electronic spatial extent (au):  <R**2>=            714.5292
 Charge=             -0.0000 electrons
 Dipole moment (field-independent basis, Debye):
    X=             -0.9930    Y=              1.7711    Z=              0.0325  Tot=              2.0307
 Quadrupole moment (field-independent basis, Debye-Ang):
   XX=            -42.2030   YY=            -36.7832   ZZ=            -42.7177
   XY=              4.4482   XZ=             -1.3140   YZ=             -0.5242
 Traceless Quadrupole moment (field-independent basis, Debye-Ang):
   XX=             -1.6350   YY=              3.7848   ZZ=             -2.1498
   XY=              4.4482   XZ=             -1.3140   YZ=             -0.5242
 Octapole moment (field-independent basis, Debye-Ang**2):
  XXX=             13.3875  YYY=              3.5257  ZZZ=             -0.2564  XYY=              7.3165
  XXY=             10.8118  XXZ=             -8.4850  XZZ=              7.3824  YZZ=              0.8348
  YYZ=             -1.2202  XYZ=             -3.0125
 Hexadecapole moment (field-independent basis, Debye-Ang**3):
 XXXX=           -550.2473 YYYY=           -212.0224 ZZZZ=           -105.0829 XXXY=             26.2586
 XXXZ=             -4.8106 YYYX=              5.3636 YYYZ=             -1.7108 ZZZX=             -9.7529
 ZZZY=             -0.5975 XXYY=           -117.2258 XXZZ=           -116.6676 YYZZ=            -53.4950
 XXYZ=             -9.9939 YYXZ=             -3.0623 ZZXY=              4.9867
 N-N= 3.011404720509D+02 E-N=-1.406812561626D+03  KE= 3.417731436683D+02
                          Isotropic Fermi Contact Couplings
        Atom                 a.u.       MegaHertz       Gauss      10(-4) cm-1
     1  C(13)              0.04286      48.18646      17.19413      16.07327
     2  C(13)              0.09690     108.93601      38.87108      36.33714
     3  O(17)              0.12891     -78.14761     -27.88501     -26.06724
     4  C(13)             -0.06513     -73.22412     -26.12819     -24.42494
     5  H(1)              -0.00818     -36.55925     -13.04525     -12.19485
     6  H(1)              -0.00775     -34.64389     -12.36180     -11.55596
     7  C(13)              0.09870     110.96145      39.59380      37.01276
     8  H(1)               0.00266      11.87735       4.23813       3.96186
     9  C(13)             -0.02032     -22.84488      -8.15162      -7.62023
    10  H(1)              -0.00768     -34.35042     -12.25708     -11.45807
    11  H(1)               0.02197      98.19115      35.03704      32.75304
    12  H(1)               0.01516      67.77588      24.18412      22.60760
    13  O(17)              0.02209     -13.38956      -4.77773      -4.46628
    14  H(1)              -0.00060      -2.70423      -0.96494      -0.90203
 --------------------------------------------------------
       Center         ----  Spin Dipole Couplings  ----
                      3XX-RR        3YY-RR        3ZZ-RR
 --------------------------------------------------------
     1   Atom       -0.103738     -0.105035      0.208774
     2   Atom       -0.250802     -0.298715      0.549517
     3   Atom        0.021673      0.034939     -0.056612
     4   Atom        0.078268      0.104344     -0.182612
     5   Atom       -0.026412      0.030668     -0.004255
     6   Atom       -0.015365      0.021824     -0.006459
     7   Atom       -0.220104     -0.295238      0.515342
     8   Atom        0.003188      0.003238     -0.006426
     9   Atom       -0.010230      0.003308      0.006921
    10   Atom        0.019734     -0.020234      0.000501
    11   Atom        0.002301      0.001171     -0.003472
    12   Atom       -0.002622      0.007373     -0.004752
    13   Atom       -0.051554     -0.092890      0.144444
    14   Atom        0.000696      0.004546     -0.005242
 --------------------------------------------------------
                        XY            XZ            YZ
 --------------------------------------------------------
     1   Atom       -0.003837      0.013691      0.026733
     2   Atom        0.018625     -0.235523     -0.050856
     3   Atom       -0.005650      0.031945     -0.029787
     4   Atom        0.007511      0.083550      0.002417
     5   Atom        0.030155     -0.008455      0.006501
     6   Atom       -0.050181      0.012688     -0.019337
     7   Atom        0.005356     -0.220842      0.000618
     8   Atom        0.007225      0.003678      0.002031
     9   Atom        0.002284      0.007403      0.008370
    10   Atom        0.033582      0.007192      0.009547
    11   Atom       -0.004893     -0.002968      0.004189
    12   Atom       -0.000870      0.002012     -0.006097
    13   Atom       -0.004003     -0.093153      0.010409
    14   Atom        0.003602     -0.004478     -0.000480
 --------------------------------------------------------


 ---------------------------------------------------------------------------------
              Anisotropic Spin Dipole Couplings in Principal Axis System
 ---------------------------------------------------------------------------------

       Atom             a.u.   MegaHertz   Gauss  10(-4) cm-1        Axes

              Baa    -0.1110   -14.894    -5.315    -4.968  0.5960  0.7977 -0.0922
     1 C(13)  Bbb    -0.1006   -13.500    -4.817    -4.503  0.8019 -0.5972  0.0161
              Bcc     0.2116    28.394    10.132     9.471  0.0422  0.0835  0.9956
 
              Baa    -0.3164   -42.461   -15.151   -14.163  0.9245 -0.3010  0.2338
     2 C(13)  Bbb    -0.3004   -40.317   -14.386   -13.448  0.2761  0.9518  0.1335
              Bcc     0.6169    82.777    29.537    27.612 -0.2627 -0.0588  0.9631
 
              Baa    -0.0744     5.382     1.921     1.795 -0.2940  0.2371  0.9259
     3 O(17)  Bbb     0.0218    -1.575    -0.562    -0.525  0.8045  0.5844  0.1058
              Bcc     0.0526    -3.807    -1.358    -1.270 -0.5161  0.7760 -0.3626
 
              Baa    -0.2071   -27.788    -9.915    -9.269 -0.2810 -0.0007  0.9597
     4 C(13)  Bbb     0.0956    12.830     4.578     4.280  0.7124 -0.6702  0.2081
              Bcc     0.1115    14.958     5.337     4.989  0.6431  0.7422  0.1888
 
              Baa    -0.0422   -22.523    -8.037    -7.513  0.8829 -0.3888  0.2633
     5 H(1)   Bbb    -0.0016    -0.844    -0.301    -0.282 -0.2640  0.0527  0.9631
              Bcc     0.0438    23.367     8.338     7.794  0.3883  0.9198  0.0561
 
              Baa    -0.0503   -26.835    -9.576    -8.951  0.8187  0.5740  0.0162
     6 H(1)   Bbb    -0.0140    -7.471    -2.666    -2.492 -0.1910  0.2455  0.9504
              Bcc     0.0643    34.307    12.242    11.444 -0.5415  0.7812 -0.3106
 
              Baa    -0.2970   -39.860   -14.223   -13.296 -0.3095  0.9471 -0.0849
     7 C(13)  Bbb    -0.2795   -37.509   -13.384   -12.512  0.9126  0.3209  0.2533
              Bcc     0.5766    77.369    27.607    25.808 -0.2671 -0.0010  0.9637
 
              Baa    -0.0077    -4.107    -1.465    -1.370 -0.3564  0.0623  0.9323
     8 H(1)   Bbb    -0.0037    -1.954    -0.697    -0.652 -0.6187  0.7319 -0.2855
              Bcc     0.0114     6.060     2.162     2.021  0.7001  0.6785  0.2223
 
              Baa    -0.0130    -1.748    -0.624    -0.583  0.9275  0.0594 -0.3691
     9 C(13)  Bbb    -0.0027    -0.359    -0.128    -0.120 -0.2572  0.8179 -0.5147
              Bcc     0.0157     2.108     0.752     0.703  0.2713  0.5723  0.7738
 
              Baa    -0.0399   -21.293    -7.598    -7.103 -0.4759  0.8711 -0.1211
    10 H(1)   Bbb    -0.0019    -0.991    -0.354    -0.330 -0.2846 -0.0222  0.9584
              Bcc     0.0418    22.284     7.951     7.433  0.8322  0.4906  0.2585
 
              Baa    -0.0059    -3.170    -1.131    -1.057  0.0153 -0.4996  0.8661
    11 H(1)   Bbb    -0.0028    -1.489    -0.531    -0.497  0.7469  0.5816  0.3223
              Bcc     0.0087     4.659     1.662     1.554  0.6648 -0.6420 -0.3821
 
              Baa    -0.0078    -4.136    -1.476    -1.380 -0.2919  0.3431  0.8928
    12 H(1)   Bbb    -0.0024    -1.256    -0.448    -0.419  0.9484  0.2250  0.2236
              Bcc     0.0101     5.392     1.924     1.799 -0.1242  0.9120 -0.3910
 
              Baa    -0.0933     6.754     2.410     2.253 -0.0140  0.9987 -0.0492
    13 O(17)  Bbb    -0.0888     6.423     2.292     2.142  0.9287  0.0312  0.3696
              Bcc     0.1821   -13.177    -4.702    -4.395 -0.3706  0.0405  0.9279
 
              Baa    -0.0078    -4.157    -1.483    -1.387  0.5007 -0.1127  0.8583
    14 H(1)   Bbb     0.0004     0.227     0.081     0.076  0.6431 -0.6153 -0.4559
              Bcc     0.0074     3.930     1.402     1.311  0.5795  0.7802 -0.2355
 

 ---------------------------------------------------------------------------------

 No NMR shielding tensors so no spin-rotation constants.
 Leave Link  601 at Fri Sep 19 15:06:42 2025, MaxMem=   268435456 cpu:               3.1 elap:               0.8
 (Enter /apps/eb/gaussian/16-AVX2/g16/l701.exe)
 ... and contract with generalized density number  0.
 Compute integral first derivatives.
 R6Disp: Adding Grimme-D2 dispersion energy 1st derivatives to the gradient.
   1 Symmetry operations used in ECPInt.
 ECPInt:  NShTT=    2016 NPrTT=    7252 LenC2=    2009 LenP2D=    6014.
 LDataN:  DoStor=T MaxTD1= 5 Len=  102
 Leave Link  701 at Fri Sep 19 15:06:42 2025, MaxMem=   268435456 cpu:               1.4 elap:               0.4
 (Enter /apps/eb/gaussian/16-AVX2/g16/l702.exe)
 L702 exits ... SP integral derivatives will be done elsewhere.
 Leave Link  702 at Fri Sep 19 15:06:42 2025, MaxMem=   268435456 cpu:               0.1 elap:               0.0
 (Enter /apps/eb/gaussian/16-AVX2/g16/l703.exe)
 Integral derivatives from FoFJK, PRISM(SPDF).
 Compute integral first derivatives, UseDBF=F ICtDFT=           0.
 Calling FoFJK, ICntrl=      2127 FMM=F ISym2X=0 I1Cent= 0 IOpClX= 1 NMat=1 NMatS=1 NMatT=0.
 FoFJK:  IHMeth= 1 ICntrl=    2127 DoSepK=T KAlg= 0 I1Cent=           0 FoldK=F
 IRaf=         1 NMat=       1 IRICut=       1 DoRegI=T DoRafI=F ISym2E= 0 IDoP0=0 IntGTp=1.
 FoFCou: FMM=F IPFlag=           0 FMFlag=      100000 FMFlg1=         800
         NFxFlg=           0 DoJE=F BraDBF=F KetDBF=F FulRan=T
         wScrn=  0.000000 ICntrl=      2527 IOpCl=  0 I1Cent=           0 NGrid=           0
         NMat0=    1 NMatS0=      1 NMatT0=    0 NMatD0=    1 NMtDS0=    0 NMtDT0=    0
 Symmetry not used in FoFCou.
 Leave Link  703 at Fri Sep 19 15:06:45 2025, MaxMem=   268435456 cpu:              12.6 elap:               3.2
 (Enter /apps/eb/gaussian/16-AVX2/g16/l716.exe)
 Dipole        =-3.90694294D-01 6.96790393D-01 1.27899305D-02
 ***** Axes restored to original set *****
 -------------------------------------------------------------------
 Center     Atomic                   Forces (Hartrees/Bohr)
 Number     Number              X              Y              Z
 -------------------------------------------------------------------
      1        6           0.004521147    0.016139291   -0.024901526
      2        6           0.013029437    0.050813567    0.067025908
      3        8          -0.002052189   -0.001531564    0.000954171
      4        6          -0.002520652    0.001088788   -0.000420748
      5        1           0.000139192    0.000328553   -0.000125499
      6        1          -0.014900703   -0.066547412   -0.044012011
      7        6           0.000678352   -0.000165537    0.000908692
      8        1           0.000057258   -0.000071876   -0.000046088
      9        6           0.000125151   -0.001066284    0.000635234
     10        1           0.000005967   -0.000060508    0.000043795
     11        1           0.000097233    0.000047462   -0.000059079
     12        1          -0.000165967   -0.000031496   -0.000090754
     13        8           0.001007589    0.000909410    0.000138705
     14        1          -0.000021815    0.000147605   -0.000050799
 -------------------------------------------------------------------
 Cartesian Forces:  Max     0.067025908 RMS     0.018742019
 -----------------------------------------------------------------------------------------------
                       Internal Coordinate Forces (Hartree/Bohr or radian)
  Cent   Atom   N1       Length/X         N2         Alpha/Y        N3         Beta/Z          J
 -----------------------------------------------------------------------------------------------
      1  C 
      2  C        1   0.023925(     1)
      3  O        1  -0.001456(     2)      2  -0.000746(    14)
      4  C        2   0.001763(     3)      1  -0.000118(    15)      3   0.001729(    26)     0
      5  H        2  -0.000095(     4)      1  -0.000181(    16)      4   0.000611(    27)     0
      6  H        2   0.079636(     5)      1   0.039765(    17)      4  -0.000408(    28)     0
      7  C        4  -0.001956(     6)      2  -0.001668(    18)      1   0.002865(    29)     0
      8  H        4  -0.000060(     7)      2  -0.000141(    19)      7  -0.000081(    30)     0
      9  C        7  -0.000322(     8)      4  -0.001936(    20)      2   0.002263(    31)     0
     10  H        7  -0.000026(     9)      4  -0.000103(    21)      9  -0.000082(    32)     0
     11  H        9   0.000092(    10)      7   0.000136(    22)      4   0.000209(    33)     0
     12  H        9   0.000165(    11)      7  -0.000161(    23)     11   0.000112(    34)     0
     13  O        3   0.001382(    12)      1   0.000974(    24)      9   0.000318(    35)     0
     14  H       13  -0.000079(    13)      3   0.000248(    25)      1  -0.000021(    36)     0
 -----------------------------------------------------------------------------------------------
 Internal  Forces:  Max     0.079635821 RMS     0.015394679
 Force constants in internal coordinates: 
                1             2             3             4             5 
      1  0.682338D+00
      2  0.000000D+00  0.508615D+00
      3 -0.113703D-01  0.000000D+00  0.676704D+00
      4  0.000000D+00  0.000000D+00  0.000000D+00  0.347434D+00
      5 -0.520697D-01  0.000000D+00 -0.113048D-02  0.000000D+00  0.304867D+00
      6 -0.130135D+00  0.000000D+00  0.167213D+00  0.000000D+00  0.257992D-02
      7  0.000000D+00  0.000000D+00  0.000000D+00  0.000000D+00  0.000000D+00
      8 -0.784715D-01  0.000000D+00 -0.113833D+00  0.000000D+00  0.261814D-02
      9  0.000000D+00  0.000000D+00  0.000000D+00  0.000000D+00  0.000000D+00
     10  0.000000D+00  0.000000D+00  0.000000D+00  0.000000D+00  0.000000D+00
     11  0.000000D+00  0.000000D+00  0.000000D+00  0.000000D+00  0.000000D+00
     12  0.000000D+00  0.000000D+00  0.000000D+00  0.000000D+00  0.000000D+00
     13  0.000000D+00  0.000000D+00  0.000000D+00  0.000000D+00  0.000000D+00
     14 -0.722058D-01  0.000000D+00 -0.449954D-01  0.000000D+00  0.498937D-02
     15  0.235495D-01  0.000000D+00  0.784359D+00  0.000000D+00 -0.894301D-02
     16  0.000000D+00  0.000000D+00  0.000000D+00  0.000000D+00  0.000000D+00
     17  0.366475D+00  0.000000D+00  0.935856D-03  0.000000D+00  0.285042D+00
     18 -0.332323D+00  0.000000D+00  0.103674D+01  0.000000D+00  0.152868D-03
     19  0.000000D+00  0.000000D+00  0.000000D+00  0.000000D+00  0.000000D+00
     20 -0.424271D+00  0.000000D+00  0.556211D+00  0.000000D+00  0.620818D-02
     21  0.984782D-05  0.000000D+00 -0.310548D-05  0.000000D+00  0.000000D+00
     22  0.574259D-02  0.000000D+00  0.800614D-02  0.000000D+00  0.242280D-02
     23  0.208844D-01  0.000000D+00  0.891359D-02  0.000000D+00 -0.242173D-02
     24  0.000000D+00  0.000000D+00  0.000000D+00  0.000000D+00  0.000000D+00
     25  0.000000D+00  0.000000D+00  0.000000D+00  0.000000D+00  0.000000D+00
     26 -0.815920D-02  0.000000D+00  0.218764D-01  0.000000D+00  0.343146D-01
     27  0.000000D+00  0.000000D+00 -0.878747D-03  0.000000D+00  0.000000D+00
     28 -0.276509D-01  0.000000D+00 -0.187329D-01  0.000000D+00  0.122309D-01
     29  0.206468D-01  0.000000D+00 -0.470241D-01  0.000000D+00  0.455212D-01
     30  0.000000D+00  0.000000D+00  0.000000D+00  0.000000D+00  0.000000D+00
     31  0.961423D-02  0.000000D+00 -0.414654D-01  0.000000D+00  0.304119D-01
     32 -0.405611D-03  0.000000D+00  0.127908D-03  0.000000D+00  0.000000D+00
     33 -0.135746D-01  0.000000D+00  0.332465D-02  0.000000D+00 -0.201066D-02
     34 -0.280792D-01  0.000000D+00 -0.124885D-01  0.000000D+00 -0.111066D-02
     35  0.173997D-01  0.000000D+00  0.292605D-02  0.000000D+00 -0.952729D-02
     36  0.000000D+00  0.000000D+00  0.000000D+00  0.000000D+00  0.000000D+00
                6             7             8             9            10 
      6  0.728244D+00
      7  0.000000D+00  0.347665D+00
      8  0.493965D-03  0.000000D+00  0.431635D+00
      9  0.000000D+00  0.000000D+00  0.000000D+00  0.348242D+00
     10  0.000000D+00  0.000000D+00  0.000000D+00  0.000000D+00  0.328234D+00
     11  0.000000D+00  0.000000D+00  0.000000D+00  0.000000D+00  0.000000D+00
     12  0.000000D+00  0.000000D+00  0.000000D+00  0.000000D+00  0.000000D+00
     13  0.000000D+00  0.000000D+00  0.000000D+00  0.000000D+00  0.000000D+00
     14  0.383101D-01  0.000000D+00  0.716483D-01  0.000000D+00  0.000000D+00
     15  0.511057D+00  0.000000D+00 -0.429720D+00  0.000000D+00  0.000000D+00
     16  0.000000D+00  0.000000D+00  0.000000D+00  0.000000D+00  0.000000D+00
     17 -0.213576D-02  0.000000D+00 -0.216740D-02  0.000000D+00  0.000000D+00
     18  0.103182D+01  0.000000D+00 -0.320708D+00  0.000000D+00  0.000000D+00
     19  0.000000D+00  0.000000D+00  0.000000D+00  0.000000D+00  0.000000D+00
     20  0.795971D+00  0.000000D+00 -0.407703D-02  0.000000D+00  0.000000D+00
     21 -0.713325D-05  0.000000D+00  0.000000D+00  0.000000D+00  0.000000D+00
     22 -0.410197D-02  0.000000D+00 -0.113756D-01  0.000000D+00  0.000000D+00
     23 -0.111256D-01  0.000000D+00 -0.159821D-01  0.000000D+00  0.000000D+00
     24  0.000000D+00  0.000000D+00  0.000000D+00  0.000000D+00  0.000000D+00
     25  0.000000D+00  0.000000D+00  0.000000D+00  0.000000D+00  0.000000D+00
     26 -0.124770D-01  0.000000D+00 -0.317248D-01  0.000000D+00  0.000000D+00
     27 -0.140935D-03  0.000000D+00  0.949586D-03  0.000000D+00  0.000000D+00
     28  0.796867D-02  0.000000D+00  0.257928D-01  0.000000D+00  0.000000D+00
     29 -0.114533D+00  0.000000D+00 -0.397111D-01  0.000000D+00  0.000000D+00
     30  0.000000D+00  0.000000D+00  0.000000D+00  0.000000D+00  0.000000D+00
     31 -0.848678D-01  0.000000D+00 -0.244663D-01  0.000000D+00  0.000000D+00
     32  0.293804D-03  0.000000D+00  0.000000D+00  0.000000D+00  0.000000D+00
     33  0.109382D-01  0.000000D+00  0.166979D-02  0.000000D+00  0.000000D+00
     34  0.176114D-01  0.000000D+00  0.234154D-01  0.000000D+00  0.000000D+00
     35 -0.528953D-02  0.000000D+00 -0.607452D-02  0.000000D+00  0.000000D+00
     36  0.000000D+00  0.000000D+00  0.000000D+00  0.000000D+00  0.000000D+00
               11            12            13            14            15 
     11  0.333853D+00
     12  0.000000D+00  0.398195D+00
     13  0.000000D+00  0.000000D+00  0.539324D+00
     14  0.000000D+00  0.000000D+00  0.000000D+00  0.471448D+00
     15  0.000000D+00  0.000000D+00  0.000000D+00 -0.271488D+00  0.338824D+01
     16  0.000000D+00  0.000000D+00  0.000000D+00  0.000000D+00  0.159639D+00
     17  0.000000D+00  0.000000D+00  0.000000D+00 -0.413041D-02  0.868676D-02
     18  0.000000D+00  0.000000D+00  0.000000D+00 -0.121899D+00  0.359873D+01
     19  0.000000D+00  0.000000D+00  0.000000D+00  0.000000D+00 -0.119748D-04
     20  0.000000D+00  0.000000D+00  0.000000D+00  0.392124D-01  0.190364D+01
     21  0.000000D+00  0.000000D+00  0.000000D+00  0.000000D+00 -0.113436D-04
     22  0.000000D+00  0.000000D+00  0.000000D+00 -0.336329D-02  0.174808D-01
     23  0.000000D+00  0.000000D+00  0.000000D+00  0.336181D-02  0.620477D-02
     24  0.000000D+00  0.000000D+00  0.000000D+00  0.000000D+00  0.000000D+00
     25  0.000000D+00  0.000000D+00  0.000000D+00  0.000000D+00  0.000000D+00
     26  0.000000D+00  0.000000D+00  0.000000D+00 -0.104851D+00  0.115950D+00
     27  0.000000D+00  0.000000D+00  0.000000D+00  0.000000D+00 -0.176694D-01
     28  0.000000D+00  0.000000D+00  0.000000D+00 -0.510991D-01 -0.176993D-01
     29  0.000000D+00  0.000000D+00  0.000000D+00 -0.533381D-01 -0.994660D-01
     30  0.000000D+00  0.000000D+00  0.000000D+00  0.000000D+00 -0.743969D-02
     31  0.000000D+00  0.000000D+00  0.000000D+00 -0.337097D-01 -0.911158D-01
     32  0.000000D+00  0.000000D+00  0.000000D+00  0.000000D+00  0.206435D-03
     33  0.000000D+00  0.000000D+00  0.000000D+00  0.279116D-02  0.225673D-01
     34  0.000000D+00  0.000000D+00  0.000000D+00  0.154181D-02 -0.940640D-02
     35  0.000000D+00  0.000000D+00  0.000000D+00 -0.242743D-01  0.236134D-01
     36  0.000000D+00  0.000000D+00  0.000000D+00  0.000000D+00  0.000000D+00
               16            17            18            19            20 
     16  0.408780D+00
     17 -0.590473D-01  0.239786D+01
     18  0.000000D+00 -0.126550D-03  0.593081D+01
     19  0.000000D+00  0.000000D+00  0.159561D+00  0.319647D+00
     20  0.000000D+00 -0.513938D-02  0.361811D+01  0.000000D+00  0.323648D+01
     21  0.000000D+00  0.000000D+00 -0.297537D-04  0.000000D+00  0.159928D+00
     22  0.000000D+00 -0.200569D-02 -0.415947D-02  0.000000D+00 -0.308703D-01
     23  0.000000D+00  0.200481D-02 -0.318355D-01  0.000000D+00 -0.664832D-01
     24  0.000000D+00  0.000000D+00  0.000000D+00  0.000000D+00  0.000000D+00
     25  0.000000D+00  0.000000D+00  0.000000D+00  0.000000D+00  0.000000D+00
     26 -0.700276D-02 -0.296717D-01  0.653935D-01  0.692569D-04 -0.629779D-02
     27  0.552540D-01 -0.587740D-01 -0.355843D-02  0.000000D+00 -0.142799D-02
     28 -0.724186D-01  0.306515D-01 -0.607434D-01  0.000000D+00 -0.270231D-02
     29 -0.652939D-02 -0.799861D-01 -0.351866D+00 -0.169494D-03 -0.327836D+00
     30 -0.326469D-02 -0.211509D-01 -0.600656D-02 -0.373515D-02  0.000000D+00
     31  0.000000D+00 -0.251762D-01 -0.292800D+00 -0.379713D-02 -0.258611D+00
     32  0.000000D+00  0.000000D+00  0.217858D-03 -0.189857D-02  0.316420D-02
     33  0.000000D+00  0.166450D-02  0.445978D-01  0.000000D+00  0.417757D-01
     34  0.000000D+00  0.919453D-03  0.501370D-01  0.000000D+00  0.996436D-01
     35  0.000000D+00  0.788708D-02  0.404661D-02  0.000000D+00 -0.965382D-02
     36  0.000000D+00  0.000000D+00  0.000000D+00  0.000000D+00  0.000000D+00
               21            22            23            24            25 
     21  0.319954D+00
     22  0.000000D+00  0.252217D+00
     23  0.000000D+00  0.541034D-01  0.259424D+00
     24  0.000000D+00  0.000000D+00  0.000000D+00  0.250000D+00
     25  0.000000D+00  0.000000D+00  0.000000D+00  0.000000D+00  0.160000D+00
     26 -0.650424D-04 -0.402450D-02  0.390285D-02  0.000000D+00  0.000000D+00
     27  0.000000D+00  0.000000D+00  0.000000D+00  0.000000D+00  0.000000D+00
     28  0.000000D+00  0.605774D-03 -0.605509D-03  0.000000D+00  0.000000D+00
     29 -0.156621D-03  0.588872D-01 -0.546507D-01  0.000000D+00  0.000000D+00
     30  0.000000D+00  0.000000D+00  0.000000D+00  0.000000D+00  0.000000D+00
     31 -0.184477D-03  0.897288D-01 -0.858297D-01  0.000000D+00  0.000000D+00
     32  0.170645D-02  0.000000D+00  0.000000D+00  0.000000D+00  0.000000D+00
     33  0.325795D-03  0.457506D-01 -0.513477D-01  0.000000D+00  0.000000D+00
     34  0.162898D-03  0.692280D-01  0.156778D-01  0.000000D+00  0.000000D+00
     35  0.000000D+00  0.000000D+00  0.000000D+00  0.000000D+00  0.000000D+00
     36  0.000000D+00  0.000000D+00  0.000000D+00  0.000000D+00  0.000000D+00
               26            27            28            29            30 
     26  0.276596D+00
     27  0.114614D-01  0.181391D+00
     28  0.119351D+00 -0.712874D-01  0.438929D+00
     29  0.165568D+00 -0.649051D-01 -0.221147D+00  0.105742D+01
     30  0.173596D-02 -0.208865D-01 -0.212602D-02  0.561125D-01  0.138360D+00
     31  0.974290D-01 -0.142934D-01 -0.132945D+00  0.802768D+00 -0.468282D-01
     32  0.513196D-02  0.000000D+00  0.000000D+00  0.683375D-02 -0.234141D-01
     33  0.337381D-02  0.000000D+00 -0.502727D-03  0.196067D+00  0.000000D+00
     34  0.194376D-02  0.000000D+00 -0.277701D-03  0.855432D-01  0.000000D+00
     35 -0.316045D-01  0.000000D+00  0.843419D-02 -0.671353D-01  0.000000D+00
     36  0.000000D+00  0.000000D+00  0.000000D+00  0.000000D+00  0.000000D+00
               31            32            33            34            35 
     31  0.946630D+00
     32  0.518342D-01  0.958314D-01
     33  0.330200D+00 -0.134188D-01  0.258507D+00
     34  0.147035D+00 -0.670941D-02  0.124141D+00  0.216763D+00
     35 -0.417652D-01  0.000000D+00  0.000000D+00  0.000000D+00  0.624206D-01
     36  0.000000D+00  0.000000D+00  0.000000D+00  0.000000D+00  0.000000D+00
               36 
     36  0.788169D-02
 Leave Link  716 at Fri Sep 19 15:06:46 2025, MaxMem=   268435456 cpu:               0.4 elap:               0.1
 (Enter /apps/eb/gaussian/16-AVX2/g16/l103.exe)

 GradGradGradGradGradGradGradGradGradGradGradGradGradGradGradGradGradGrad
 Berny optimization.
 Search for a local minimum.
 Step number   1 out of a maximum of   46
 All quantities printed in internal units (Hartrees-Bohrs-Radians)
 Second derivative matrix not updated -- first step.
 ITU=  0
     Eigenvalues ---    0.00788   0.03630   0.05035   0.06383   0.08547
     Eigenvalues ---    0.10838   0.16000   0.16907   0.17238   0.20343
     Eigenvalues ---    0.22754   0.25000   0.28102   0.31639   0.31893
     Eigenvalues ---    0.32823   0.33385   0.34359   0.34743   0.34766
     Eigenvalues ---    0.34824   0.38064   0.42128   0.46508   0.48692
     Eigenvalues ---    0.50861   0.51402   0.53932   0.57606   0.60702
     Eigenvalues ---    1.61493   2.08687   2.49062  11.156491000.00000
     Eigenvalues --- 1000.00000
 RFO step:  Lambda=-1.31513951D-03 EMin= 7.88169388D-03
 Linear search not attempted -- first point.
 Variable       Old X    -DE/DX   Delta X   Delta X   Delta X     New X
                                 (Linear)    (Quad)   (Total)
    R1        2.73000   0.02392   0.00000   0.03337   0.03337   2.76337
    R2        2.59006  -0.00146   0.00000  -0.00286  -0.00286   2.58720
    R3        2.65658   0.00176   0.00000   0.00362   0.00362   2.66020
    R4        2.06094  -0.00009   0.00000  -0.00027  -0.00027   2.06066
    R6        2.61236  -0.00196   0.00000  -0.00119  -0.00119   2.61117
    R7        2.06056  -0.00006   0.00000  -0.00017  -0.00017   2.06039
    R8        2.84612  -0.00032   0.00000   0.00249   0.00249   2.84860
    R9        2.05961  -0.00003   0.00000  -0.00007  -0.00007   2.05954
   R10        2.09363   0.00009   0.00000   0.00028   0.00028   2.09391
   R11        2.08380   0.00017   0.00000   0.00049   0.00049   2.08429
   R13        1.82793  -0.00008   0.00000  -0.00015  -0.00015   1.82779
    A2        2.12860  -0.00075   0.00000   0.00377   0.00377   2.13237
    A3        1.90346  -0.00012   0.00000  -0.00529  -0.00529   1.89817
    A4        2.15458  -0.00018   0.00000   0.00304   0.00304   2.15762
    A5        0.80331   0.03976   0.00000   0.01203   0.01203   0.81534
    A6        1.92046  -0.00167   0.00000   0.00151   0.00151   1.92196
    A7        2.17288  -0.00014   0.00000  -0.00119  -0.00119   2.17170
    A8        1.92528  -0.00194   0.00000   0.00575   0.00575   1.93102
[...]
 Alpha virt. eigenvalues --    2.19063   2.21908   2.26298   2.28540   2.29806
 Alpha virt. eigenvalues --    2.40991   2.43080   2.51302   2.54670   2.55486
 Alpha virt. eigenvalues --    2.56718   2.59201   2.60290   2.66737   2.67215
 Alpha virt. eigenvalues --    2.75549   2.77065   2.81429   2.87488   2.92593
 Alpha virt. eigenvalues --    3.02010   3.03585   3.06167   3.12263   3.20119
 Alpha virt. eigenvalues --    3.27089   3.28820   3.44762   3.53087   3.66940
 Alpha virt. eigenvalues --    3.94055
  Beta  occ. eigenvalues --  -19.31936 -19.30318 -10.35582 -10.31420 -10.30655
  Beta  occ. eigenvalues --  -10.30551 -10.29483  -1.22342  -1.02132  -0.95483
  Beta  occ. eigenvalues --   -0.82060  -0.79630  -0.66579  -0.64184  -0.62327
  Beta  occ. eigenvalues --   -0.58657  -0.57043  -0.53437  -0.49486  -0.48685
  Beta  occ. eigenvalues --   -0.47406  -0.45367  -0.41327  -0.38351  -0.36427
  Beta  occ. eigenvalues --   -0.33749
  Beta virt. eigenvalues --    0.01126   0.10089   0.13098   0.15616   0.16461
  Beta virt. eigenvalues --    0.17531   0.19265   0.20877   0.21720   0.23546
  Beta virt. eigenvalues --    0.26480   0.30500   0.32323   0.38300   0.41891
  Beta virt. eigenvalues --    0.47259   0.48437   0.50208   0.54792   0.55186
  Beta virt. eigenvalues --    0.58125   0.59200   0.62401   0.63820   0.67470
  Beta virt. eigenvalues --    0.69394   0.69923   0.70401   0.71604   0.72507
  Beta virt. eigenvalues --    0.75285   0.76562   0.77680   0.78320   0.79710
  Beta virt. eigenvalues --    0.82367   0.83337   0.86155   0.90372   0.95472
  Beta virt. eigenvalues --    1.01832   1.03930   1.06421   1.12297   1.13843
  Beta virt. eigenvalues --    1.16125   1.17618   1.27268   1.28239   1.33850
  Beta virt. eigenvalues --    1.35083   1.39431   1.44271   1.51215   1.54112
  Beta virt. eigenvalues --    1.61425   1.63495   1.64936   1.68011   1.73644
  Beta virt. eigenvalues --    1.77075   1.77401   1.80948   1.84277   1.87253
  Beta virt. eigenvalues --    1.88104   1.90501   1.91740   1.93743   1.98352
  Beta virt. eigenvalues --    2.00177   2.05465   2.09133   2.11325   2.15892
  Beta virt. eigenvalues --    2.17871   2.19364   2.22908   2.27111   2.28716
  Beta virt. eigenvalues --    2.30914   2.42352   2.43949   2.52038   2.55268
  Beta virt. eigenvalues --    2.55943   2.57127   2.60036   2.61084   2.67230
  Beta virt. eigenvalues --    2.67921   2.76056   2.77603   2.82264   2.88255
  Beta virt. eigenvalues --    2.93046   3.02187   3.03871   3.06525   3.12652
  Beta virt. eigenvalues --    3.20425   3.27373   3.29137   3.45010   3.53439
  Beta virt. eigenvalues --    3.67016   3.94269
          Condensed to atoms (all electrons):
               1          2          3          4          5          6
     1  C    5.110023  -0.017396   0.320963   0.013020  -0.047280   0.328774
     2  C   -0.017396   5.672162  -0.035422   0.283230   0.424754  -0.070686
     3  O    0.320963  -0.035422   7.906288   0.003870   0.001661  -0.016303
     4  C    0.013020   0.283230   0.003870   4.897884  -0.038025   0.020432
     5  H   -0.047280   0.424754   0.001661  -0.038025   0.609480  -0.005810
     6  H    0.328774  -0.070686  -0.016303   0.020432  -0.005810   0.697441
     7  C   -0.058015   0.015995   0.004068   0.460060   0.006400  -0.012340
     8  H    0.005767  -0.053935  -0.000070   0.440118  -0.005139  -0.001261
     9  C    0.366786  -0.151301  -0.042307  -0.030255   0.010463  -0.013100
    10  H    0.005411   0.009572  -0.000069  -0.044056  -0.000204  -0.000486
    11  H   -0.007815  -0.006253  -0.005763   0.003568  -0.000236   0.006860
    12  H   -0.023077   0.015143   0.002742  -0.000636  -0.000246  -0.010154
    13  O   -0.064133   0.001017   0.096276  -0.000408   0.000174   0.007727
    14  H   -0.004011   0.009133  -0.019109  -0.000830   0.000159  -0.001241
               7          8          9         10         11         12
     1  C   -0.058015   0.005767   0.366786   0.005411  -0.007815  -0.023077
     2  C    0.015995  -0.053935  -0.151301   0.009572  -0.006253   0.015143
     3  O    0.004068  -0.000070  -0.042307  -0.000069  -0.005763   0.002742
     4  C    0.460060   0.440118  -0.030255  -0.044056   0.003568  -0.000636
     5  H    0.006400  -0.005139   0.010463  -0.000204  -0.000236  -0.000246
     6  H   -0.012340  -0.001261  -0.013100  -0.000486   0.006860  -0.010154
     7  C    5.127344  -0.056376   0.283769   0.420950  -0.019430  -0.019338
     8  H   -0.056376   0.642940   0.010417  -0.006478  -0.000299  -0.000183
     9  C    0.283769   0.010417   4.794861  -0.040346   0.351775   0.373763
    10  H    0.420950  -0.006478  -0.040346   0.628373  -0.000790  -0.001692
    11  H   -0.019430  -0.000299   0.351775  -0.000790   0.630737  -0.027528
    12  H   -0.019338  -0.000183   0.373763  -0.001692  -0.027528   0.635167
    13  O   -0.000427  -0.000018  -0.002613  -0.000008   0.009781  -0.000286
    14  H    0.000280   0.000006  -0.001225   0.000002  -0.000402   0.000021
              13         14
     1  C   -0.064133  -0.004011
     2  C    0.001017   0.009133
     3  O    0.096276  -0.019109
     4  C   -0.000408  -0.000830
     5  H    0.000174   0.000159
     6  H    0.007727  -0.001241
     7  C   -0.000427   0.000280
     8  H   -0.000018   0.000006
     9  C   -0.002613  -0.001225
    10  H   -0.000008   0.000002
    11  H    0.009781  -0.000402
    12  H   -0.000286   0.000021
    13  O    7.816257   0.308740
    14  H    0.308740   0.513380
          Atomic-Atomic Spin Densities.
               1          2          3          4          5          6
     1  C    0.357652  -0.264116  -0.013827   0.022771  -0.001243   0.091499
     2  C   -0.264116   0.935780   0.010227  -0.026959   0.005540  -0.077313
     3  O   -0.013827   0.010227   0.017469  -0.001027   0.000224  -0.007830
     4  C    0.022771  -0.026959  -0.001027  -0.233635  -0.000366   0.006397
     5  H   -0.001243   0.005540   0.000224  -0.000366  -0.031531   0.000888
     6  H    0.091499  -0.077313  -0.007830   0.006397   0.000888  -0.036738
     7  C    0.026152  -0.062974   0.000123  -0.015051  -0.000155   0.010147
     8  H   -0.000509   0.001285   0.000007  -0.001564   0.000196  -0.000126
     9  C   -0.027448   0.033775   0.003173  -0.006355  -0.000330  -0.013772
    10  H   -0.000516   0.000435   0.000008  -0.000835   0.000009  -0.000064
    11  H   -0.000756  -0.003846  -0.002339   0.003595   0.000005   0.002367
    12  H   -0.015284   0.006688   0.000765  -0.001199   0.000009  -0.002365
    13  O   -0.002311   0.000558  -0.022991   0.000264   0.000025   0.001066
    14  H   -0.000353  -0.000285   0.000789   0.000009  -0.000041   0.000052
               7          8          9         10         11         12
     1  C    0.026152  -0.000509  -0.027448  -0.000516  -0.000756  -0.015284
     2  C   -0.062974   0.001285   0.033775   0.000435  -0.003846   0.006688
     3  O    0.000123   0.000007   0.003173   0.000008  -0.002339   0.000765
     4  C   -0.015051  -0.001564  -0.006355  -0.000835   0.003595  -0.001199
     5  H   -0.000155   0.000196  -0.000330   0.000009   0.000005   0.000009
     6  H    0.010147  -0.000126  -0.013772  -0.000064   0.002367  -0.002365
     7  C    0.644981  -0.000572  -0.037364   0.004502  -0.016942  -0.015644
     8  H   -0.000572   0.009675   0.000262   0.000271  -0.000086   0.000036
     9  C   -0.037364   0.000262  -0.030341   0.000668  -0.005682   0.023456
    10  H    0.004502   0.000271   0.000668  -0.028383  -0.000762   0.000628
    11  H   -0.016942  -0.000086  -0.005682  -0.000762   0.091867  -0.016376
    12  H   -0.015644   0.000036   0.023456   0.000628  -0.016376   0.048069
    13  O   -0.000131  -0.000002  -0.001394  -0.000002   0.001778  -0.000245
    14  H    0.000001   0.000000   0.000077   0.000000  -0.000041   0.000002
              13         14
     1  C   -0.002311  -0.000353
     2  C    0.000558  -0.000285
     3  O   -0.022991   0.000789
     4  C    0.000264   0.000009
     5  H    0.000025  -0.000041
     6  H    0.001066   0.000052
     7  C   -0.000131   0.000001
     8  H   -0.000002   0.000000
     9  C   -0.001394   0.000077
    10  H   -0.000002   0.000000
    11  H    0.001778  -0.000041
    12  H   -0.000245   0.000002
    13  O    0.074139   0.000167
    14  H    0.000167  -0.002012
 Mulliken charges and spin densities:
               1          2
     1  C    0.070984   0.171710
     2  C   -0.096010   0.558795
     3  O   -0.216826  -0.015230
     4  C   -0.007971  -0.253956
     5  H    0.043850  -0.026770
     6  H    0.070147  -0.025791
     7  C   -0.152940   0.537072
     8  H    0.024513   0.008873
     9  C    0.089314  -0.061274
    10  H    0.029823  -0.024040
    11  H    0.065793   0.052783
    12  H    0.056304   0.028541
    13  O   -0.172078   0.050922
    14  H    0.195098  -0.001636
 Sum of Mulliken charges =  -0.00000   1.00000
 Mulliken charges and spin densities with hydrogens summed into heavy atoms:
               1          2
     1  C    0.141131   0.145919
     2  C   -0.052161   0.532025
     3  O   -0.216826  -0.015230
     4  C    0.016541  -0.245082
     7  C   -0.123117   0.513032
     9  C    0.211412   0.020050
    13  O    0.023020   0.049286
 Electronic spatial extent (au):  <R**2>=            720.5486
 Charge=              0.0000 electrons
 Dipole moment (field-independent basis, Debye):
    X=             -0.9929    Y=              1.7676    Z=              0.0566  Tot=              2.0282
 Quadrupole moment (field-independent basis, Debye-Ang):
   XX=            -42.0975   YY=            -36.7118   ZZ=            -42.9429
   XY=              4.5746   XZ=             -1.1700   YZ=             -0.4682
 Traceless Quadrupole moment (field-independent basis, Debye-Ang):
   XX=             -1.5134   YY=              3.8723   ZZ=             -2.3588
   XY=              4.5746   XZ=             -1.1700   YZ=             -0.4682
 Octapole moment (field-independent basis, Debye-Ang**2):
  XXX=             13.7143  YYY=              3.5712  ZZZ=             -0.2677  XYY=              7.5623
  XXY=             11.2002  XXZ=             -8.0827  XZZ=              7.1862  YZZ=              0.6360
  YYZ=             -1.3564  XYZ=             -2.8253
 Hexadecapole moment (field-independent basis, Debye-Ang**3):
 XXXX=           -555.3503 YYYY=           -213.3150 ZZZZ=           -104.4489 XXXY=             27.5378
 XXXZ=             -4.1374 YYYX=              5.9580 YYYZ=             -2.0666 ZZZX=             -9.3123
 ZZZY=             -0.6056 XXYY=           -117.9234 XXZZ=           -118.4615 YYZZ=            -53.8129
 XXYZ=             -9.8144 YYXZ=             -3.0521 ZZXY=              4.8772
 N-N= 3.001739175899D+02 E-N=-1.404821341186D+03  KE= 3.416906905702D+02
                          Isotropic Fermi Contact Couplings
        Atom                 a.u.       MegaHertz       Gauss      10(-4) cm-1
     1  C(13)              0.05334      59.96473      21.39691      20.00208
     2  C(13)              0.09869     110.94629      39.58840      37.00770
     3  O(17)              0.13964     -84.64996     -30.20521     -28.23619
     4  C(13)             -0.06335     -71.22010     -25.41310     -23.75647
     5  H(1)              -0.00831     -37.13155     -13.24946     -12.38575
     6  H(1)              -0.01160     -51.84745     -18.50046     -17.29445
     7  C(13)              0.09303     104.58669      37.31913      34.88636
     8  H(1)               0.00257      11.48579       4.09842       3.83125
     9  C(13)             -0.01951     -21.93031      -7.82528      -7.31516
    10  H(1)              -0.00734     -32.81749     -11.71010     -10.94674
    11  H(1)               0.02272     101.55860      36.23864      33.87630
    12  H(1)               0.01565      69.95365      24.96120      23.33402
    13  O(17)              0.02920     -17.70134      -6.31628      -5.90453
    14  H(1)              -0.00073      -3.25479      -1.16139      -1.08568
 --------------------------------------------------------
       Center         ----  Spin Dipole Couplings  ----
                      3XX-RR        3YY-RR        3ZZ-RR
 --------------------------------------------------------
     1   Atom       -0.121244     -0.123520      0.244764
     2   Atom       -0.255300     -0.298108      0.553408
     3   Atom        0.021737      0.046099     -0.067836
     4   Atom        0.078247      0.102876     -0.181123
     5   Atom       -0.026126      0.030058     -0.003932
     6   Atom       -0.017875      0.024477     -0.006602
     7   Atom       -0.211739     -0.280492      0.492231
     8   Atom        0.003331      0.002947     -0.006278
     9   Atom       -0.010447      0.003146      0.007301
    10   Atom        0.019135     -0.019452      0.000317
    11   Atom        0.001927      0.001183     -0.003111
    12   Atom       -0.002739      0.007738     -0.004999
    13   Atom       -0.054038     -0.109871      0.163909
    14   Atom       -0.000036      0.005846     -0.005811
 --------------------------------------------------------
                        XY            XZ            YZ
 --------------------------------------------------------
     1   Atom       -0.003363      0.003987      0.029482
     2   Atom        0.015890     -0.223601     -0.044423
     3   Atom       -0.001829      0.032275     -0.030274
     4   Atom        0.006757      0.080967      0.004256
     5   Atom        0.030486     -0.008141      0.005600
     6   Atom       -0.052537      0.011809     -0.019460
     7   Atom        0.007161     -0.202864     -0.005919
     8   Atom        0.007177      0.003695      0.002129
     9   Atom        0.003365      0.008504      0.009069
    10   Atom        0.031942      0.006931      0.008521
    11   Atom       -0.004477     -0.003004      0.004485
    12   Atom       -0.000176      0.001663     -0.005966
    13   Atom       -0.003058     -0.117787      0.008778
    14   Atom        0.004609     -0.004693     -0.000373
 --------------------------------------------------------


 ---------------------------------------------------------------------------------
              Anisotropic Spin Dipole Couplings in Principal Axis System
 ---------------------------------------------------------------------------------

       Atom             a.u.   MegaHertz   Gauss  10(-4) cm-1        Axes

              Baa    -0.1279   -17.163    -6.124    -5.725  0.4848  0.8715 -0.0741
     1 C(13)  Bbb    -0.1192   -16.002    -5.710    -5.338  0.8746 -0.4840  0.0296
              Bcc     0.2471    33.165    11.834    11.063  0.0101  0.0792  0.9968
 
              Baa    -0.3143   -42.181   -15.051   -14.070  0.9286 -0.2957  0.2241
     2 C(13)  Bbb    -0.2992   -40.150   -14.327   -13.393  0.2744  0.9539  0.1217
              Bcc     0.6135    82.331    29.378    27.463 -0.2498 -0.0515  0.9669
 
              Baa    -0.0844     6.108     2.180     2.038 -0.2808  0.2131  0.9358
     3 O(17)  Bbb     0.0275    -1.989    -0.710    -0.664  0.9038  0.3868  0.1831
              Bcc     0.0569    -4.119    -1.470    -1.374 -0.3230  0.8972 -0.3013
 
              Baa    -0.2043   -27.420    -9.784    -9.146 -0.2753 -0.0073  0.9613
     4 C(13)  Bbb     0.0945    12.677     4.523     4.228  0.7123 -0.6731  0.1989
              Bcc     0.1099    14.744     5.261     4.918  0.6456  0.7395  0.1905
 
              Baa    -0.0420   -22.392    -7.990    -7.469  0.8852 -0.3939  0.2475
     5 H(1)   Bbb    -0.0015    -0.816    -0.291    -0.272 -0.2427  0.0627  0.9681
              Bcc     0.0435    23.207     8.281     7.741  0.3968  0.9170  0.0402
 
              Baa    -0.0534   -28.477   -10.161    -9.499  0.8256  0.5637  0.0261
     6 H(1)   Bbb    -0.0136    -7.256    -2.589    -2.420 -0.1871  0.2299  0.9551
              Bcc     0.0670    35.733    12.750    11.919 -0.5323  0.7934 -0.2953
 
              Baa    -0.2823   -37.887   -13.519   -12.638 -0.3050  0.9496 -0.0726
     7 C(13)  Bbb    -0.2642   -35.458   -12.652   -11.828  0.9166  0.3134  0.2483
              Bcc     0.5466    73.345    26.171    24.465 -0.2585 -0.0092  0.9660
 
              Baa    -0.0075    -4.028    -1.437    -1.344 -0.3506  0.0501  0.9352
     8 H(1)   Bbb    -0.0037    -1.998    -0.713    -0.666 -0.6127  0.7429 -0.2695
              Bcc     0.0113     6.026     2.150     2.010  0.7082  0.6675  0.2298
 
              Baa    -0.0139    -1.861    -0.664    -0.621  0.9248  0.0196 -0.3799
     9 C(13)  Bbb    -0.0034    -0.463    -0.165    -0.154 -0.2292  0.8258 -0.5154
              Bcc     0.0173     2.324     0.829     0.775  0.3036  0.5637  0.7682
 
              Baa    -0.0379   -20.228    -7.218    -6.747 -0.4756  0.8730 -0.1084
    10 H(1)   Bbb    -0.0019    -1.017    -0.363    -0.339 -0.2726 -0.0291  0.9617
              Bcc     0.0398    21.245     7.581     7.087  0.8364  0.4869  0.2518
 
              Baa    -0.0059    -3.170    -1.131    -1.057  0.0314 -0.5183  0.8546
    11 H(1)   Bbb    -0.0025    -1.343    -0.479    -0.448  0.7706  0.5571  0.3096
              Bcc     0.0085     4.513     1.610     1.505 -0.6366  0.6488  0.4169
 
              Baa    -0.0078    -4.159    -1.484    -1.387 -0.2830  0.3411  0.8964
    12 H(1)   Bbb    -0.0023    -1.253    -0.447    -0.418  0.9572  0.1596  0.2415
              Bcc     0.0101     5.412     1.931     1.805 -0.0607  0.9264 -0.3717
 
              Baa    -0.1102     7.977     2.846     2.661 -0.1260  0.9883 -0.0858
    13 O(17)  Bbb    -0.1054     7.628     2.722     2.544  0.9077  0.1497  0.3921
              Bcc     0.2157   -15.605    -5.568    -5.205 -0.4003  0.0285  0.9159
 
              Baa    -0.0087    -4.651    -1.660    -1.552  0.5293 -0.1461  0.8358
    14 H(1)   Bbb    -0.0002    -0.083    -0.030    -0.028  0.6640 -0.5419 -0.5152
              Bcc     0.0089     4.734     1.689     1.579  0.5282  0.8276 -0.1898
 

 ---------------------------------------------------------------------------------

 No NMR shielding tensors so no spin-rotation constants.
 Leave Link  601 at Fri Sep 19 15:11:54 2025, MaxMem=   268435456 cpu:               3.2 elap:               0.8
 (Enter /apps/eb/gaussian/16-AVX2/g16/l9999.exe)
 Unable to Open any file for archive entry.
 1\1\GINC-RA2-9\POpt\UwB97XD\def2SVP\C5H7O2(2)\AVCOPAN\19-Sep-2025\1\\#
 P wb97xd/def2svp # SCF=(xqc) # POpt=() # int=ultrafine\\comment:\\0,2\
 C\C,1,R1\O,1,R2,2,A2\C,2,R3,1,A3,3,D3,0\H,2,R4,1,A4,4,D4,0\H,2,R5,1,A5
 ,4,D5,0\C,4,R6,2,A6,1,D6,0\H,4,R7,2,A7,7,D7,0\C,7,R8,4,A8,2,D8,0\H,7,R
 9,4,A9,9,D9,0\H,9,R10,7,A10,4,D10,0\H,9,R11,7,A11,11,D11,0\O,3,R12,1,A
 12,9,D12,0\H,13,R13,3,A13,1,D13,0\\R1=1.47369119\R2=1.36245309\R3=1.41
 15794\R4=1.08995522\R6=1.37773948\R7=1.09037315\R8=1.50636669\R9=1.089
 96531\R10=1.1086206\R11=1.10325621\R13=0.96722404\A2=122.15334108\A3=1
 08.32920324\A4=123.66415546\A5=47.22080563\A6=110.33401325\A7=124.2950
 8396\A8=110.80562986\A9=125.48761763\A10=112.03225524\A11=113.88009666
 \A12=108.70307017\A13=101.23958393\D3=159.47219071\D4=176.3571031\D5=9
 9.04355337\D6=-4.55208153\D7=176.86348184\D8=358.1142986\D9=180.463253
 7\D10=251.38101424\D11=239.11558036\D12=74.95018921\D13=100.71684992\R
 5=1.342353\R12=1.4383\\Version=ES64L-G16RevC.01\State=2-A\HF=-344.5936
 788\S2=0.782196\S2-1=0.\S2A=0.750309\RMSD=9.531e-09\RMSF=1.419e-02\Dip
 ole=-0.0019447,-0.2158843,0.7681842\Quadrupole=2.8968989,-1.6059066,-1
 .2909923,-0.4562468,3.4320145,-0.6741867\PG=C01 [X(C5H7O2)]\\@
 The archive entry for this job was punched.


 The theorems and results in mathematical physics are
 not theorems and results about Nature, but about our
 description of it.
                   --Gerard 't Hooft
 Job cpu time:       0 days  0 hours 23 minutes 27.4 seconds.
 Elapsed time:       0 days  0 hours  5 minutes 58.1 seconds.
 File lengths (MBytes):  RWF=     24 Int=      0 D2E=      0 Chk=      3 Scr=      1
 Normal termination of Gaussian 16 at Fri Sep 19 15:11:54 2025.
