 Entering Gaussian System, Link 0=g16
 Input=run.inp
 Output=run.out
 Initial command:
 /apps/eb/gaussian/16-AVX2/g16/l1.exe "/scratch/gtemp/avcopan/Gau-1126502.inp" -scrdir="/scratch/gtemp/avcopan/"
 Entering Link 1 = /apps/eb/gaussian/16-AVX2/g16/l1.exe PID=   1126503.
  
 Copyright (c) 1988-2019, Gaussian, Inc.  All Rights Reserved.
  
 This is part of the Gaussian(R) 16 program.  It is based on
 the Gaussian(R) 09 system (copyright 2009, Gaussian, Inc.),
 the Gaussian(R) 03 system (copyright 2003, Gaussian, Inc.),
 the Gaussian(R) 98 system (copyright 1998, Gaussian, Inc.),
 the Gaussian(R) 94 system (copyright 1995, Gaussian, Inc.),
 the Gaussian 92(TM) system (copyright 1992, Gaussian, Inc.),
 the Gaussian 90(TM) system (copyright 1990, Gaussian, Inc.),
 the Gaussian 88(TM) system (copyright 1988, Gaussian, Inc.),
 the Gaussian 86(TM) system (copyright 1986, Carnegie Mellon
 University), and the Gaussian 82(TM) system (copyright 1983,
 Carnegie Mellon University). Gaussian is a federally registered
 trademark of Gaussian, Inc.
  
 This software contains proprietary and confidential information,
 including trade secrets, belonging to Gaussian, Inc.
  
 This software is provided under written license and may be
 used, copied, transmitted, or stored only in accord with that
 written license.
  
 The following legend is applicable only to US Government
 contracts under FAR:
  
                    RESTRICTED RIGHTS LEGEND
  
 Use, reproduction and disclosure by the US Government is
 subject to restrictions as set forth in subparagraphs (a)
 and (c) of the Commercial Computer Software - Restricted
 Rights clause in FAR 52.227-19.
  
 Gaussian, Inc.
 340 Quinnipiac St., Bldg. 40, Wallingford CT 06492
  
  
 ---------------------------------------------------------------
 Warning -- This program may not be used in any manner that
 competes with the business of Gaussian, Inc. or will provide
 assistance to any competitor of Gaussian, Inc.  The licensee
 of this program is prohibited from giving any competitor of
 Gaussian, Inc. access to this program.  By using this program,
 the user acknowledges that Gaussian, Inc. is engaged in the
 business of creating and licensing software in the field of
 computational chemistry and represents and warrants to the
 licensee that it is not a competitor of Gaussian, Inc. and that
 it will not use this program in any manner prohibited above.
 ---------------------------------------------------------------
  

 Cite this work as:
 Gaussian 16, Revision C.01,
 M. J. Frisch, G. W. Trucks, H. B. Schlegel, G. E. Scuseria, 
 M. A. Robb, J. R. Cheeseman, G. Scalmani, V. Barone, 
 G. A. Petersson, H. Nakatsuji, X. Li, M. Caricato, A. V. Marenich, 
 J. Bloino, B. G. Janesko, R. Gomperts, B. Mennucci, H. P. Hratchian, 
 J. V. Ortiz, A. F. Izmaylov, J. L. Sonnenberg, D. Williams-Young, 
 F. Ding, F. Lipparini, F. Egidi, J. Goings, B. Peng, A. Petrone, 
 T. Henderson, D. Ranasinghe, V. G. Zakrzewski, J. Gao, N. Rega, 
 G. Zheng, W. Liang, M. Hada, M. Ehara, K. Toyota, R. Fukuda, 
 J. Hasegawa, M. Ishida, T. Nakajima, Y. Honda, O. Kitao, H. Nakai, 
 T. Vreven, K. Throssell, J. A. Montgomery, Jr., J. E. Peralta, 
 F. Ogliaro, M. J. Bearpark, J. J. Heyd, E. N. Brothers, K. N. Kudin, 
 V. N. Staroverov, T. A. Keith, R. Kobayashi, J. Normand, 
 K. Raghavachari, A. P. Rendell, J. C. Burant, S. S. Iyengar, 
 J. Tomasi, M. Cossi, J. M. Millam, M. Klene, C. Adamo, R. Cammi, 
 J. W. Ochterski, R. L. Martin, K. Morokuma, O. Farkas, 
 J. B. Foresman, and D. J. Fox, Gaussian, Inc., Wallingford CT, 2019.
 
 ******************************************
 Gaussian 16:  ES64L-G16RevC.01  3-Jul-2019
                29-Aug-2025 
 ******************************************
 %mem=2GB
 %NProcShared=8
 Will use up to    8 processors via shared memory.
 ----------------------------------------------------------------------
 #P wb97xd/def2svp # SCF=(xqc) # POpt=(CALCFC,TS,NOEIGEN,MAXCYCLES=60) 
 # Freq # int=ultrafine
 ----------------------------------------------------------------------
 1/5=1,6=60,10=4,11=1,26=4,38=1/1,3;
 2/12=2,17=6,18=5,29=3,40=1/2;
 3/5=43,7=101,11=2,25=1,30=1,71=2,74=-58,75=-5,140=1/1,2,3;
 4//1;
 5/5=2,8=3,13=1,38=5/2,8;
 8/6=4,10=90,11=11/1;
 11/6=1,8=1,9=11,15=111,16=1/1,2,10;
 10/6=1,13=1/2;
 6/7=2,8=2,9=2,10=2,28=1/1;
 7/10=1,25=1/1,2,3,16;
 1/5=1,6=60,10=4,11=1,26=4/3(2);
 2/29=3/2;
 99//99;
 2/29=3/2;
 3/5=43,7=101,11=2,25=1,30=1,71=1,74=-58,75=-5/1,2,3;
 4/5=5,16=3,69=1/1;
 5/5=2,8=3,13=1,38=5/2,8;
 7//1,2,3,16;
 1/5=1,6=60,11=1,26=4/3(-5);
 2/29=3/2;
 6/7=2,8=2,9=2,10=2,19=2,28=1/1;
 99/9=1/99;
 Leave Link    1 at Fri Aug 29 13:22:19 2025, MaxMem=   268435456 cpu:               0.5 elap:               0.1
 (Enter /apps/eb/gaussian/16-AVX2/g16/l101.exe)
 --------
 comment:
 --------
 Symbolic Z-matrix:
 Charge =  0 Multiplicity = 2
 C
 C                    1    R1
 H                    1    R2       2    A2
 C                    2    R3       1    A3       3    D3       0
 H                    2    R4       1    A4       4    D4       0
 C                    4    R5       2    A5       1    D5       0
 H                    4    R6       2    A6       6    D6       0
 H                    4    R7       2    A7       6    D7       0
 C                    6    R8       4    A8       2    D8       0
 H                    6    R9       4    A9       9    D9       0
 H                    6    R10      4    A10      9    D10      0
 H                    9    R11      6    A11      4    D11      0
 H                    9    R12      6    A12      12   D12      0
 O                    1    R13      2    A13      3    D13      0
 H                    14   R14      1    A14      2    D14      0
       Variables:
  R1                    1.349                    
  R2                    1.0922                   
  R3                    1.503                    
  R4                    1.0922                   
  R5                    1.5429                   
  R6                    1.1056                   
  R7                    1.1001                   
  R8                    1.5429                   
  R9                    1.0991                   
  R10                   1.0984                   
  R11                   1.1056                   
  R12                   1.1001                   
  R13                   2.4105                   
  R14                   0.9702                   
  A2                  124.9662                   
  A3                  111.6458                   
  A4                  124.9673                   
  A5                  103.1955                   
  A6                  109.6741                   
  A7                  112.2199                   
  A8                  105.5931                   
  A9                  112.9066                   
  A10                 108.6862                   
  A11                 112.2598                   
  A12                 112.6909                   
  A13                  73.7458                   
  A14                  90.112                    
  D3                  184.2529                   
  D4                  175.7734                   
  D5                  346.7072                   
  D6                  119.8032                   
  D7                  238.4131                   
  D8                   20.6981                   
  D9                  123.8225                   
  D10                 243.543                    
  D11                  97.3131                   
  D12                 120.7218                   
  D13                 266.9045                   
  D14                  90.0449                   
 
 ITRead=  0  0  0  0  0  0  0  0  0  0  0  0  0  0  0
 MicOpt= -1 -1 -1 -1 -1 -1 -1 -1 -1 -1 -1 -1 -1 -1 -1
 NAtoms=     15 NQM=       15 NQMF=       0 NMMI=      0 NMMIF=      0
                NMic=       0 NMicF=      0.
                    Isotopes and Nuclear Properties:
 (Nuclear quadrupole moments (NQMom) in fm**2, nuclear magnetic moments (NMagM)
  in nuclear magnetons)

  Atom         1           2           3           4           5           6           7           8           9          10
 IAtWgt=          12          12           1          12           1          12           1           1          12           1
 AtmWgt=  12.0000000  12.0000000   1.0078250  12.0000000   1.0078250  12.0000000   1.0078250   1.0078250  12.0000000   1.0078250
 NucSpn=           0           0           1           0           1           0           1           1           0           1
 AtZEff=  -0.0000000  -0.0000000  -0.0000000  -0.0000000  -0.0000000  -0.0000000  -0.0000000  -0.0000000  -0.0000000  -0.0000000
 NQMom=    0.0000000   0.0000000   0.0000000   0.0000000   0.0000000   0.0000000   0.0000000   0.0000000   0.0000000   0.0000000
 NMagM=    0.0000000   0.0000000   2.7928460   0.0000000   2.7928460   0.0000000   2.7928460   2.7928460   0.0000000   2.7928460
 AtZNuc=   6.0000000   6.0000000   1.0000000   6.0000000   1.0000000   6.0000000   1.0000000   1.0000000   6.0000000   1.0000000

  Atom        11          12          13          14          15
 IAtWgt=           1           1           1          16           1
 AtmWgt=   1.0078250   1.0078250   1.0078250  15.9949146   1.0078250
 NucSpn=           1           1           1           0           1
 AtZEff=  -0.0000000  -0.0000000  -0.0000000  -0.0000000  -0.0000000
 NQMom=    0.0000000   0.0000000   0.0000000   0.0000000   0.0000000
 NMagM=    2.7928460   2.7928460   2.7928460   0.0000000   2.7928460
 AtZNuc=   1.0000000   1.0000000   1.0000000   8.0000000   1.0000000
 Leave Link  101 at Fri Aug 29 13:22:19 2025, MaxMem=   268435456 cpu:               0.3 elap:               0.1
 (Enter /apps/eb/gaussian/16-AVX2/g16/l103.exe)

 GradGradGradGradGradGradGradGradGradGradGradGradGradGradGradGradGradGrad
 Berny optimization.
 Initialization pass.
                       ----------------------------
                       !    Initial Parameters    !
                       ! (Angstroms and Degrees)  !
 ----------------------                            ----------------------
 !      Name          Value   Derivative information (Atomic Units)     !
 ------------------------------------------------------------------------
 !       R1          1.349    calculate D2E/DX2 analytically            !
 !       R2          1.0922   calculate D2E/DX2 analytically            !
 !       R3          1.503    calculate D2E/DX2 analytically            !
 !       R4          1.0922   calculate D2E/DX2 analytically            !
 !       R5          1.5429   calculate D2E/DX2 analytically            !
 !       R6          1.1056   calculate D2E/DX2 analytically            !
 !       R7          1.1001   calculate D2E/DX2 analytically            !
 !       R8          1.5429   calculate D2E/DX2 analytically            !
 !       R9          1.0991   calculate D2E/DX2 analytically            !
 !       R10         1.0984   calculate D2E/DX2 analytically            !
 !       R11         1.1056   calculate D2E/DX2 analytically            !
 !       R12         1.1001   calculate D2E/DX2 analytically            !
 !       R13         2.4105   calculate D2E/DX2 analytically            !
 !       R14         0.9702   calculate D2E/DX2 analytically            !
 !       A2        124.9662   calculate D2E/DX2 analytically            !
 !       A3        111.6458   calculate D2E/DX2 analytically            !
 !       A4        124.9673   calculate D2E/DX2 analytically            !
 !       A5        103.1955   calculate D2E/DX2 analytically            !
 !       A6        109.6741   calculate D2E/DX2 analytically            !
 !       A7        112.2199   calculate D2E/DX2 analytically            !
 !       A8        105.5931   calculate D2E/DX2 analytically            !
 !       A9        112.9066   calculate D2E/DX2 analytically            !
 !       A10       108.6862   calculate D2E/DX2 analytically            !
 !       A11       112.2598   calculate D2E/DX2 analytically            !
 !       A12       112.6909   calculate D2E/DX2 analytically            !
 !       A13        73.7458   calculate D2E/DX2 analytically            !
 !       A14        90.112    calculate D2E/DX2 analytically            !
 !       D3        184.2529   calculate D2E/DX2 analytically            !
 !       D4        175.7734   calculate D2E/DX2 analytically            !
 !       D5        346.7072   calculate D2E/DX2 analytically            !
 !       D6        119.8032   calculate D2E/DX2 analytically            !
 !       D7        238.4131   calculate D2E/DX2 analytically            !
 !       D8         20.6981   calculate D2E/DX2 analytically            !
 !       D9        123.8225   calculate D2E/DX2 analytically            !
 !       D10       243.543    calculate D2E/DX2 analytically            !
 !       D11        97.3131   calculate D2E/DX2 analytically            !
 !       D12       120.7218   calculate D2E/DX2 analytically            !
 !       D13       266.9045   calculate D2E/DX2 analytically            !
 !       D14        90.0449   calculate D2E/DX2 analytically            !
 ------------------------------------------------------------------------
 Trust Radius=3.00D-01 FncErr=1.00D-07 GrdErr=1.00D-06 EigMax=2.50D+02 EigMin=1.00D-04
 Number of steps in this run=     60 maximum allowed number of steps=    100.
 Search for a saddle point of order  1.
 GradGradGradGradGradGradGradGradGradGradGradGradGradGradGradGradGradGrad

 Leave Link  103 at Fri Aug 29 13:22:19 2025, MaxMem=   268435456 cpu:               0.1 elap:               0.0
 (Enter /apps/eb/gaussian/16-AVX2/g16/l202.exe)
 ---------------------------------------------------------------------------------------------------
                            Z-MATRIX (ANGSTROMS AND DEGREES)
   CD    Cent   Atom    N1       Length/X        N2       Alpha/Y        N3        Beta/Z          J
 ---------------------------------------------------------------------------------------------------
      1      1  C 
      2      2  C        1   1.349000(     1)
      3      3  H        1   1.092200(     2)      2  124.966(    15)
      4      4  C        2   1.503000(     3)      1  111.646(    16)      3  184.253(    28)      0
      5      5  H        2   1.092200(     4)      1  124.967(    17)      4  175.773(    29)      0
      6      6  C        4   1.542900(     5)      2  103.195(    18)      1  346.707(    30)      0
      7      7  H        4   1.105600(     6)      2  109.674(    19)      6  119.803(    31)      0
      8      8  H        4   1.100100(     7)      2  112.220(    20)      6  238.413(    32)      0
      9      9  C        6   1.542900(     8)      4  105.593(    21)      2   20.698(    33)      0
     10     10  H        6   1.099100(     9)      4  112.907(    22)      9  123.822(    34)      0
     11     11  H        6   1.098400(    10)      4  108.686(    23)      9  243.543(    35)      0
     12     12  H        9   1.105600(    11)      6  112.260(    24)      4   97.313(    36)      0
     13     13  H        9   1.100100(    12)      6  112.691(    25)     12  120.722(    37)      0
     14     14  O        1   2.410500(    13)      2   73.746(    26)      3  266.904(    38)      0
     15     15  H       14   0.970200(    14)      1   90.112(    27)      2   90.045(    39)      0
 ---------------------------------------------------------------------------------------------------
                         Z-Matrix orientation:                         
 ---------------------------------------------------------------------
 Center     Atomic      Atomic             Coordinates (Angstroms)
 Number     Number       Type             X           Y           Z
 ---------------------------------------------------------------------
      1          6           0        0.000000    0.000000    0.000000
      2          6           0        0.000000    0.000000    1.349000
      3          1           0        0.895047    0.000000   -0.625932
      4          6           0       -1.393165   -0.103601    1.903408
      5          1           0        0.895035    0.000411    1.974949
      6          6           0       -2.283013    0.176569    0.674500
      7          1           0       -1.555333   -1.116550    2.315703
      8          1           0       -1.567954    0.607026    2.724796
      9          6           0       -1.393166   -0.103589   -0.554412
     10          1           0       -3.210468   -0.413219    0.674498
     11          1           0       -2.558412    1.239883    0.674507
     12          1           0       -1.555356   -1.116518   -0.966747
     13          1           0       -1.567949    0.607060   -1.375781
     14          8           0       -0.124965    2.310774    0.674697
     15          1           0        0.843707    2.365196    0.674498
 ---------------------------------------------------------------------
                    Distance matrix (angstroms):
                    1          2          3          4          5
     1  C    0.000000
     2  C    1.349000   0.000000
     3  H    1.092200   2.168287   0.000000
     4  C    2.361060   1.503000   3.412361   0.000000
     5  H    2.168297   1.092200   2.600882   2.291679   0.000000
     6  C    2.387106   2.387106   3.438367   1.542900   3.438341
     7  H    3.004701   2.144822   3.988015   1.105600   2.714409
     8  H    3.201792   2.172504   4.202646   1.100100   2.645102
     9  C    1.503002   2.361063   2.291673   2.457820   3.412382
    10  H    3.306479   3.306479   4.326329   2.215553   4.326363
    11  H    2.921942   2.921938   3.892921   2.161700   3.892780
    12  H    2.144842   3.004735   2.714267   3.047966   3.988173
    13  H    2.172501   3.201784   2.645212   3.359862   4.202584
    14  O    2.410500   2.410389   2.841081   2.991198   2.840569
    15  H    2.600181   2.600182   2.699612   3.550883   2.699262
                    6          7          8          9         10
     6  C    0.000000
     7  H    2.212515   0.000000
     8  H    2.213666   1.771505   0.000000
     9  C    1.542900   3.047941   3.359870   0.000000
    10  H    1.099100   2.434687   2.818240   2.215553   0.000000
    11  H    1.098400   3.041787   2.363303   2.161702   1.777055
    12  H    2.212522   3.282450   4.074096   1.105600   2.434689
    13  H    2.213661   4.074070   4.100578   1.100100   2.818241
    14  O    3.035129   4.060222   3.031152   2.991353   4.115879
    15  H    3.816605   4.535582   3.620910   3.550876   4.914868
                   11         12         13         14         15
    11  H    0.000000
    12  H    3.041787   0.000000
    13  H    2.363295   1.771494   0.000000
    14  O    2.658660   4.060381   3.031387   0.000000
    15  H    3.583398   4.535584   3.620881   0.970200   0.000000
 Stoichiometry    C5H9O(2)
 Framework group  C1[X(C5H9O)]
 Deg. of freedom    39
 Full point group                 C1      NOp   1
 Largest Abelian subgroup         C1      NOp   1
 Largest concise Abelian subgroup C1      NOp   1
                         Standard orientation:                         
 ---------------------------------------------------------------------
 Center     Atomic      Atomic             Coordinates (Angstroms)
 Number     Number       Type             X           Y           Z
 ---------------------------------------------------------------------
      1          6           0       -0.354603    0.674722    0.904032
      2          6           0       -0.354796   -0.674278    0.904239
      3          1           0       -1.020416    1.300841    1.502004
      4          6           0        0.750844   -1.228975    0.050494
      5          1           0       -1.021053   -1.300041    1.502088
      6          6           0        1.225846   -0.000257   -0.752730
      7          1           0        1.548285   -1.641285    0.695815
      8          1           0        0.405929   -2.050412   -0.594870
      9          6           0        0.751189    1.228845    0.050108
     10          1           0        2.309952   -0.000437   -0.933658
     11          1           0        0.720235   -0.000341   -1.727840
     12          1           0        1.548750    1.641165    0.695275
     13          1           0        0.406489    2.050165   -0.595519
     14          8           0       -1.805778   -0.000044   -0.898547
     15          1           0       -2.562820    0.000356   -0.291773
 ---------------------------------------------------------------------
 Rotational constants (GHZ):           4.4410438           3.2381383           2.9515618
 Leave Link  202 at Fri Aug 29 13:22:19 2025, MaxMem=   268435456 cpu:               0.0 elap:               0.0
 (Enter /apps/eb/gaussian/16-AVX2/g16/l301.exe)
 Standard basis: def2SVP (5D, 7F)
 Ernie: Thresh=  0.10000D-02 Tol=  0.10000D-05 Strict=F.
 There are   135 symmetry adapted cartesian basis functions of A   symmetry.
 There are   129 symmetry adapted basis functions of A   symmetry.
   129 basis functions,   213 primitive gaussians,   135 cartesian basis functions
    24 alpha electrons       23 beta electrons
       nuclear repulsion energy       238.7060110565 Hartrees.
 IExCor= 4639 DFT=T Ex+Corr=wB97XD ExCW=0 ScaHFX=  1.000000
 ScaDFX=  1.000000  1.000000  1.000000  1.000000 ScalE2=  1.000000  1.000000
 IRadAn=      5 IRanWt=     -1 IRanGd=            0 ICorTp=0 IEmpDi=121
 HFx  wShort=  0.000000 wLong=  0.200000 cFull=  0.222036 cShort=  0.000000 cLong=  0.777964
 DFx  wShort=  0.000000 wLong=  0.200000 cFull=  0.000000 cShort=  0.000000 cLong=  1.000000
 NAtoms=   15 NActive=   15 NUniq=   15 SFac= 1.00D+00 NAtFMM=   60 NAOKFM=F Big=F
 Integral buffers will be    131072 words long.
 Raffenetti 2 integral format.
 Two-electron integral symmetry is turned on.
 R6Disp:  Grimme-D2 Dispersion energy=       -0.0078430670 Hartrees.
 Nuclear repulsion after empirical dispersion term =      238.6981679895 Hartrees.
 Leave Link  301 at Fri Aug 29 13:22:19 2025, MaxMem=   268435456 cpu:               0.2 elap:               0.0
 (Enter /apps/eb/gaussian/16-AVX2/g16/l302.exe)
 NPDir=0 NMtPBC=     1 NCelOv=     1 NCel=       1 NClECP=     1 NCelD=      1
         NCelK=      1 NCelE2=     1 NClLst=     1 CellRange=     0.0.
 One-electron integrals computed using PRISM.
 One-electron integral symmetry used in STVInt
   1 Symmetry operations used in ECPInt.
 ECPInt:  NShTT=    2016 NPrTT=    7008 LenC2=    2014 LenP2D=    6007.
 LDataN:  DoStor=T MaxTD1= 4 Len=   56
 NBasis=   129 RedAO= T EigKep=  9.84D-04  NBF=   129
 NBsUse=   129 1.00D-06 EigRej= -1.00D+00 NBFU=   129
 Precomputing XC quadrature grid using
 IXCGrd= 4 IRadAn=           5 IRanWt=          -1 IRanGd=           0 AccXCQ= 0.00D+00.
 Generated NRdTot=       0 NPtTot=           0 NUsed=           0 NTot=          32
 NSgBfM=   135   135   135   135   135 MxSgAt=    15 MxSgA2=    15.
 Leave Link  302 at Fri Aug 29 13:22:19 2025, MaxMem=   268435456 cpu:               0.7 elap:               0.1
 (Enter /apps/eb/gaussian/16-AVX2/g16/l303.exe)
 DipDrv:  MaxL=1.
 Leave Link  303 at Fri Aug 29 13:22:19 2025, MaxMem=   268435456 cpu:               0.1 elap:               0.0
 (Enter /apps/eb/gaussian/16-AVX2/g16/l401.exe)
 ExpMin= 1.22D-01 ExpMax= 2.27D+03 ExpMxC= 3.41D+02 IAcc=3 IRadAn=         5 AccDes= 0.00D+00
 Harris functional with IExCor= 4639 and IRadAn=       5 diagonalized for initial guess.
 HarFok:  IExCor= 4639 AccDes= 0.00D+00 IRadAn=         5 IDoV= 1 UseB2=F ITyADJ=14
 ICtDFT=  3500011 ScaDFX=  1.000000  1.000000  1.000000  1.000000
 FoFCou: FMM=F IPFlag=           0 FMFlag=      100000 FMFlg1=           0
         NFxFlg=           0 DoJE=T BraDBF=F KetDBF=T FulRan=T
         wScrn=  0.000000 ICntrl=       500 IOpCl=  0 I1Cent=   200000004 NGrid=           0
         NMat0=    1 NMatS0=      1 NMatT0=    0 NMatD0=    1 NMtDS0=    0 NMtDT0=    0
 Petite list used in FoFCou.
 Harris En= -258.658381097583    
 JPrj=0 DoOrth=F DoCkMO=F.
 Initial guess <Sx>= 0.0000 <Sy>= 0.0000 <Sz>= 0.5000 <S**2>= 0.7500 S= 0.5000
 Leave Link  401 at Fri Aug 29 13:22:20 2025, MaxMem=   268435456 cpu:               2.5 elap:               0.3
 (Enter /apps/eb/gaussian/16-AVX2/g16/l502.exe)
 Integral symmetry usage will be decided dynamically.
 UHF open shell SCF:
 Using DIIS extrapolation, IDIIS=  1040.
 NGot=   268435456 LenX=   268395948 LenY=   268377282
 Requested convergence on RMS density matrix=1.00D-08 within  32 cycles.
 Requested convergence on MAX density matrix=1.00D-06.
 Requested convergence on             energy=1.00D-06.
 No special actions if energy rises.
 Fock matrices will be formed incrementally for  20 cycles.
 Integral accuracy reduced to 1.0D-05 until final iterations.

 Cycle   1  Pass 0  IDiag  1:
 FoFJK:  IHMeth= 1 ICntrl=       0 DoSepK=T KAlg= 0 I1Cent=           0 FoldK=F
 IRaf=         1 NMat=       1 IRICut=       1 DoRegI=T DoRafI=F ISym2E= 0 IDoP0=0 IntGTp=1.
 FoFCou: FMM=F IPFlag=           0 FMFlag=      100000 FMFlg1=           0
         NFxFlg=           0 DoJE=T BraDBF=F KetDBF=F FulRan=T
         wScrn=  0.000000 ICntrl=       500 IOpCl=  0 I1Cent=           0 NGrid=           0
         NMat0=    1 NMatS0=      1 NMatT0=    0 NMatD0=    1 NMtDS0=    0 NMtDT0=    0
 Symmetry not used in FoFCou.
 E= -270.734271837696    
 DIIS: error= 3.68D-02 at cycle   1 NSaved=   1.
 NSaved= 1 IEnMin= 1 EnMin= -270.734271837696     IErMin= 1 ErrMin= 3.68D-02
 ErrMax= 3.68D-02  0.00D+00 EMaxC= 1.00D-01 BMatC= 4.38D-01 BMatP= 4.38D-01
 IDIUse=3 WtCom= 6.32D-01 WtEn= 3.68D-01
 Coeff-Com:  0.100D+01
 Coeff-En:   0.100D+01
 Coeff:      0.100D+01
 Gap=     0.406 Goal=   None    Shift=    0.000
 Gap=     0.305 Goal=   None    Shift=    0.000
 GapD=    0.305 DampG=1.000 DampE=0.500 DampFc=0.5000 IDamp=-1.
 Damping current iteration by 5.00D-01
 RMSDP=3.18D-03 MaxDP=7.24D-02              OVMax= 5.70D-02

 Cycle   2  Pass 0  IDiag  1:
 RMSU=  1.58D-03    CP:  9.93D-01
 E= -270.755077086952     Delta-E=       -0.020805249256 Rises=F Damp=T
 DIIS: error= 1.99D-02 at cycle   2 NSaved=   2.
 NSaved= 2 IEnMin= 2 EnMin= -270.755077086952     IErMin= 2 ErrMin= 1.99D-02
 ErrMax= 1.99D-02  0.00D+00 EMaxC= 1.00D-01 BMatC= 9.83D-02 BMatP= 4.38D-01
 IDIUse=3 WtCom= 8.01D-01 WtEn= 1.99D-01
 Coeff-Com: -0.651D+00 0.165D+01
 Coeff-En:   0.000D+00 0.100D+01
 Coeff:     -0.521D+00 0.152D+01
 Gap=     0.375 Goal=   None    Shift=    0.000
 Gap=     0.316 Goal=   None    Shift=    0.000
 RMSDP=1.68D-03 MaxDP=3.55D-02 DE=-2.08D-02 OVMax= 1.14D-01

 Cycle   3  Pass 0  IDiag  1:
 RMSU=  1.25D-03    CP:  9.90D-01  1.72D+00
 E= -270.774343122152     Delta-E=       -0.019266035200 Rises=F Damp=F
 DIIS: error= 1.15D-02 at cycle   3 NSaved=   3.
 NSaved= 3 IEnMin= 3 EnMin= -270.774343122152     IErMin= 3 ErrMin= 1.15D-02
 ErrMax= 1.15D-02  0.00D+00 EMaxC= 1.00D-01 BMatC= 2.65D-02 BMatP= 9.83D-02
 IDIUse=3 WtCom= 8.85D-01 WtEn= 1.15D-01
 Coeff-Com: -0.403D+00 0.812D+00 0.592D+00
 Coeff-En:   0.000D+00 0.000D+00 0.100D+01
 Coeff:     -0.357D+00 0.718D+00 0.639D+00
 Gap=     0.393 Goal=   None    Shift=    0.000
 Gap=     0.314 Goal=   None    Shift=    0.000
 RMSDP=7.52D-04 MaxDP=2.17D-02 DE=-1.93D-02 OVMax= 2.83D-02

 Cycle   4  Pass 0  IDiag  1:
 RMSU=  5.69D-04    CP:  9.87D-01  1.85D+00  6.54D-01
 E= -270.779804561975     Delta-E=       -0.005461439823 Rises=F Damp=F
 DIIS: error= 2.73D-03 at cycle   4 NSaved=   4.
 NSaved= 4 IEnMin= 4 EnMin= -270.779804561975     IErMin= 4 ErrMin= 2.73D-03
 ErrMax= 2.73D-03  0.00D+00 EMaxC= 1.00D-01 BMatC= 1.26D-03 BMatP= 2.65D-02
 IDIUse=3 WtCom= 9.73D-01 WtEn= 2.73D-02
 Coeff-Com: -0.939D-01 0.180D+00 0.216D+00 0.698D+00
 Coeff-En:   0.000D+00 0.000D+00 0.000D+00 0.100D+01
 Coeff:     -0.914D-01 0.175D+00 0.210D+00 0.706D+00
 Gap=     0.383 Goal=   None    Shift=    0.000
 Gap=     0.310 Goal=   None    Shift=    0.000
 RMSDP=2.01D-04 MaxDP=7.99D-03 DE=-5.46D-03 OVMax= 3.00D-02

 Cycle   5  Pass 0  IDiag  1:
 RMSU=  1.79D-04    CP:  9.86D-01  1.88D+00  7.17D-01  1.01D+00
 E= -270.780444595259     Delta-E=       -0.000640033284 Rises=F Damp=F
 DIIS: error= 1.62D-03 at cycle   5 NSaved=   5.
 NSaved= 5 IEnMin= 5 EnMin= -270.780444595259     IErMin= 5 ErrMin= 1.62D-03
 ErrMax= 1.62D-03  0.00D+00 EMaxC= 1.00D-01 BMatC= 4.99D-04 BMatP= 1.26D-03
 IDIUse=3 WtCom= 9.84D-01 WtEn= 1.62D-02
 Coeff-Com:  0.113D+00-0.228D+00-0.228D+00 0.169D+00 0.117D+01
 Coeff-En:   0.000D+00 0.000D+00 0.000D+00 0.000D+00 0.100D+01
 Coeff:      0.111D+00-0.224D+00-0.224D+00 0.166D+00 0.117D+01
 Gap=     0.386 Goal=   None    Shift=    0.000
 Gap=     0.313 Goal=   None    Shift=    0.000
 RMSDP=2.85D-04 MaxDP=6.21D-03 DE=-6.40D-04 OVMax= 2.59D-02

 Cycle   6  Pass 0  IDiag  1:
 RMSU=  9.32D-05    CP:  9.85D-01  1.89D+00  7.06D-01  1.44D+00  1.59D+00
 E= -270.780846702727     Delta-E=       -0.000402107467 Rises=F Damp=F
 DIIS: error= 4.54D-04 at cycle   6 NSaved=   6.
 NSaved= 6 IEnMin= 6 EnMin= -270.780846702727     IErMin= 6 ErrMin= 4.54D-04
 ErrMax= 4.54D-04  0.00D+00 EMaxC= 1.00D-01 BMatC= 5.04D-05 BMatP= 4.99D-04
 IDIUse=3 WtCom= 9.95D-01 WtEn= 4.54D-03
 Coeff-Com:  0.398D-01-0.770D-01-0.995D-01-0.719D-01 0.146D+00 0.106D+01
 Coeff-En:   0.000D+00 0.000D+00 0.000D+00 0.000D+00 0.000D+00 0.100D+01
 Coeff:      0.396D-01-0.767D-01-0.990D-01-0.716D-01 0.145D+00 0.106D+01
 Gap=     0.387 Goal=   None    Shift=    0.000
 Gap=     0.313 Goal=   None    Shift=    0.000
 RMSDP=1.37D-04 MaxDP=3.03D-03 DE=-4.02D-04 OVMax= 1.37D-02

 Cycle   7  Pass 0  IDiag  1:
 RMSU=  3.67D-05    CP:  9.85D-01  1.89D+00  6.91D-01  1.62D+00  1.95D+00
                    CP:  1.47D+00
 E= -270.780917765288     Delta-E=       -0.000071062561 Rises=F Damp=F
 DIIS: error= 1.98D-04 at cycle   7 NSaved=   7.
 NSaved= 7 IEnMin= 7 EnMin= -270.780917765288     IErMin= 7 ErrMin= 1.98D-04
 ErrMax= 1.98D-04  0.00D+00 EMaxC= 1.00D-01 BMatC= 5.61D-06 BMatP= 5.04D-05
 IDIUse=3 WtCom= 9.98D-01 WtEn= 1.98D-03
 Coeff-Com: -0.187D-01 0.374D-01 0.347D-01-0.141D-01-0.217D+00 0.186D-01
 Coeff-Com:  0.116D+01
 Coeff-En:   0.000D+00 0.000D+00 0.000D+00 0.000D+00 0.000D+00 0.000D+00
 Coeff-En:   0.100D+01
 Coeff:     -0.187D-01 0.373D-01 0.346D-01-0.140D-01-0.217D+00 0.186D-01
 Coeff:      0.116D+01
 Gap=     0.387 Goal=   None    Shift=    0.000
 Gap=     0.313 Goal=   None    Shift=    0.000
 RMSDP=5.35D-05 MaxDP=1.30D-03 DE=-7.11D-05 OVMax= 5.13D-03

 Cycle   8  Pass 0  IDiag  1:
 RMSU=  1.07D-05    CP:  9.85D-01  1.89D+00  6.82D-01  1.68D+00  2.09D+00
                    CP:  1.81D+00  1.28D+00
 E= -270.780925549346     Delta-E=       -0.000007784059 Rises=F Damp=F
 DIIS: error= 3.31D-05 at cycle   8 NSaved=   8.
 NSaved= 8 IEnMin= 8 EnMin= -270.780925549346     IErMin= 8 ErrMin= 3.31D-05
 ErrMax= 3.31D-05  0.00D+00 EMaxC= 1.00D-01 BMatC= 6.62D-07 BMatP= 5.61D-06
 IDIUse=1 WtCom= 1.00D+00 WtEn= 0.00D+00
 Coeff-Com: -0.792D-02 0.157D-01 0.159D-01 0.613D-02-0.663D-01-0.999D-01
 Coeff-Com:  0.235D+00 0.902D+00
 Coeff:     -0.792D-02 0.157D-01 0.159D-01 0.613D-02-0.663D-01-0.999D-01
 Coeff:      0.235D+00 0.902D+00
 Gap=     0.387 Goal=   None    Shift=    0.000
 Gap=     0.313 Goal=   None    Shift=    0.000
 RMSDP=1.21D-05 MaxDP=2.96D-04 DE=-7.78D-06 OVMax= 9.10D-04

 Cycle   9  Pass 0  IDiag  1:
 RMSU=  3.16D-06    CP:  9.85D-01  1.89D+00  6.79D-01  1.69D+00  2.12D+00
                    CP:  1.87D+00  1.39D+00  1.18D+00
 E= -270.780925933117     Delta-E=       -0.000000383771 Rises=F Damp=F
 DIIS: error= 1.43D-05 at cycle   9 NSaved=   9.
 NSaved= 9 IEnMin= 9 EnMin= -270.780925933117     IErMin= 9 ErrMin= 1.43D-05
 ErrMax= 1.43D-05  0.00D+00 EMaxC= 1.00D-01 BMatC= 6.16D-08 BMatP= 6.62D-07
 IDIUse=1 WtCom= 1.00D+00 WtEn= 0.00D+00
 Coeff-Com:  0.878D-03-0.181D-02-0.186D-02 0.345D-02 0.133D-01-0.134D-01
 Coeff-Com: -0.858D-01 0.140D+00 0.945D+00
 Coeff:      0.878D-03-0.181D-02-0.186D-02 0.345D-02 0.133D-01-0.134D-01
 Coeff:     -0.858D-01 0.140D+00 0.945D+00
 Gap=     0.387 Goal=   None    Shift=    0.000
 Gap=     0.313 Goal=   None    Shift=    0.000
 RMSDP=1.98D-06 MaxDP=4.71D-05 DE=-3.84D-07 OVMax= 1.24D-04

 Initial convergence to 1.0D-05 achieved.  Increase integral accuracy.
 Cycle  10  Pass 1  IDiag  1:
 E= -270.780933275550     Delta-E=       -0.000007342433 Rises=F Damp=F
 DIIS: error= 2.67D-05 at cycle   1 NSaved=   1.
 NSaved= 1 IEnMin= 1 EnMin= -270.780933275550     IErMin= 1 ErrMin= 2.67D-05
 ErrMax= 2.67D-05  0.00D+00 EMaxC= 1.00D-01 BMatC= 3.48D-07 BMatP= 3.48D-07
 IDIUse=1 WtCom= 1.00D+00 WtEn= 0.00D+00
 Coeff-Com:  0.100D+01
 Coeff:      0.100D+01
 Gap=     0.387 Goal=   None    Shift=    0.000
 Gap=     0.313 Goal=   None    Shift=    0.000
 RMSDP=1.98D-06 MaxDP=4.71D-05 DE=-7.34D-06 OVMax= 1.66D-04

 Cycle  11  Pass 1  IDiag  1:
 RMSU=  9.51D-06    CP:  1.00D+00
 E= -270.780933384424     Delta-E=       -0.000000108874 Rises=F Damp=F
 DIIS: error= 1.05D-05 at cycle   2 NSaved=   2.
 NSaved= 2 IEnMin= 2 EnMin= -270.780933384424     IErMin= 2 ErrMin= 1.05D-05
 ErrMax= 1.05D-05  0.00D+00 EMaxC= 1.00D-01 BMatC= 2.29D-08 BMatP= 3.48D-07
 IDIUse=1 WtCom= 1.00D+00 WtEn= 0.00D+00
 Coeff-Com: -0.560D-01 0.106D+01
 Coeff:     -0.560D-01 0.106D+01
 Gap=     0.387 Goal=   None    Shift=    0.000
 Gap=     0.313 Goal=   None    Shift=    0.000
 RMSDP=2.19D-06 MaxDP=7.47D-05 DE=-1.09D-07 OVMax= 5.65D-05

 Cycle  12  Pass 1  IDiag  1:
 RMSU=  1.44D-06    CP:  1.00D+00  1.17D+00
 E= -270.780933390977     Delta-E=       -0.000000006554 Rises=F Damp=F
 DIIS: error= 7.78D-06 at cycle   3 NSaved=   3.
 NSaved= 3 IEnMin= 3 EnMin= -270.780933390977     IErMin= 3 ErrMin= 7.78D-06
 ErrMax= 7.78D-06  0.00D+00 EMaxC= 1.00D-01 BMatC= 1.39D-08 BMatP= 2.29D-08
 IDIUse=1 WtCom= 1.00D+00 WtEn= 0.00D+00
 Coeff-Com: -0.731D-01 0.482D+00 0.591D+00
 Coeff:     -0.731D-01 0.482D+00 0.591D+00
 Gap=     0.387 Goal=   None    Shift=    0.000
 Gap=     0.313 Goal=   None    Shift=    0.000
 RMSDP=5.40D-07 MaxDP=1.59D-05 DE=-6.55D-09 OVMax= 5.37D-05

 Cycle  13  Pass 1  IDiag  1:
 RMSU=  4.15D-07    CP:  1.00D+00  1.20D+00  8.78D-01
 E= -270.780933394961     Delta-E=       -0.000000003984 Rises=F Damp=F
 DIIS: error= 3.10D-06 at cycle   4 NSaved=   4.
 NSaved= 4 IEnMin= 4 EnMin= -270.780933394961     IErMin= 4 ErrMin= 3.10D-06
 ErrMax= 3.10D-06  0.00D+00 EMaxC= 1.00D-01 BMatC= 1.37D-09 BMatP= 1.39D-08
 IDIUse=1 WtCom= 1.00D+00 WtEn= 0.00D+00
 Coeff-Com: -0.363D-02-0.637D-01 0.149D+00 0.918D+00
 Coeff:     -0.363D-02-0.637D-01 0.149D+00 0.918D+00
 Gap=     0.387 Goal=   None    Shift=    0.000
 Gap=     0.313 Goal=   None    Shift=    0.000
 RMSDP=4.00D-07 MaxDP=1.57D-05 DE=-3.98D-09 OVMax= 2.28D-05

 Cycle  14  Pass 1  IDiag  1:
 RMSU=  2.48D-07    CP:  1.00D+00  1.22D+00  1.04D+00  1.28D+00
 E= -270.780933395788     Delta-E=       -0.000000000827 Rises=F Damp=F
 DIIS: error= 1.09D-06 at cycle   5 NSaved=   5.
 NSaved= 5 IEnMin= 5 EnMin= -270.780933395788     IErMin= 5 ErrMin= 1.09D-06
 ErrMax= 1.09D-06  0.00D+00 EMaxC= 1.00D-01 BMatC= 2.39D-10 BMatP= 1.37D-09
 IDIUse=1 WtCom= 1.00D+00 WtEn= 0.00D+00
 Coeff-Com:  0.193D-01-0.152D+00-0.678D-01 0.144D+00 0.106D+01
 Coeff:      0.193D-01-0.152D+00-0.678D-01 0.144D+00 0.106D+01
 Gap=     0.387 Goal=   None    Shift=    0.000
 Gap=     0.313 Goal=   None    Shift=    0.000
 RMSDP=2.56D-07 MaxDP=8.32D-06 DE=-8.27D-10 OVMax= 2.37D-05

 Cycle  15  Pass 1  IDiag  1:
 RMSU=  8.42D-08    CP:  1.00D+00  1.23D+00  1.16D+00  1.55D+00  1.40D+00
 E= -270.780933396099     Delta-E=       -0.000000000310 Rises=F Damp=F
 DIIS: error= 4.71D-07 at cycle   6 NSaved=   6.
 NSaved= 6 IEnMin= 6 EnMin= -270.780933396099     IErMin= 6 ErrMin= 4.71D-07
 ErrMax= 4.71D-07  0.00D+00 EMaxC= 1.00D-01 BMatC= 5.70D-11 BMatP= 2.39D-10
 IDIUse=1 WtCom= 1.00D+00 WtEn= 0.00D+00
 Coeff-Com:  0.212D-02-0.396D-02-0.524D-02-0.196D+00 0.117D+00 0.109D+01
 Coeff:      0.212D-02-0.396D-02-0.524D-02-0.196D+00 0.117D+00 0.109D+01
 Gap=     0.387 Goal=   None    Shift=    0.000
 Gap=     0.313 Goal=   None    Shift=    0.000
 RMSDP=1.22D-07 MaxDP=3.19D-06 DE=-3.10D-10 OVMax= 1.08D-05

 Cycle  16  Pass 1  IDiag  1:
 RMSU=  3.31D-08    CP:  1.00D+00  1.23D+00  1.20D+00  1.63D+00  1.73D+00
                    CP:  1.49D+00
 E= -270.780933396159     Delta-E=       -0.000000000060 Rises=F Damp=F
 DIIS: error= 1.97D-07 at cycle   7 NSaved=   7.
 NSaved= 7 IEnMin= 7 EnMin= -270.780933396159     IErMin= 7 ErrMin= 1.97D-07
 ErrMax= 1.97D-07  0.00D+00 EMaxC= 1.00D-01 BMatC= 8.10D-12 BMatP= 5.70D-11
 IDIUse=1 WtCom= 1.00D+00 WtEn= 0.00D+00
 Coeff-Com: -0.343D-02 0.310D-01 0.211D-01-0.945D-01-0.173D+00 0.236D+00
 Coeff-Com:  0.983D+00
 Coeff:     -0.343D-02 0.310D-01 0.211D-01-0.945D-01-0.173D+00 0.236D+00
 Coeff:      0.983D+00
 Gap=     0.387 Goal=   None    Shift=    0.000
 Gap=     0.313 Goal=   None    Shift=    0.000
 RMSDP=5.01D-08 MaxDP=1.47D-06 DE=-5.96D-11 OVMax= 4.74D-06

 Cycle  17  Pass 1  IDiag  1:
 RMSU=  1.28D-08    CP:  1.00D+00  1.23D+00  1.21D+00  1.65D+00  1.87D+00
                    CP:  1.79D+00  1.20D+00
 E= -270.780933396166     Delta-E=       -0.000000000008 Rises=F Damp=F
 DIIS: error= 8.28D-08 at cycle   8 NSaved=   8.
 NSaved= 8 IEnMin= 8 EnMin= -270.780933396166     IErMin= 8 ErrMin= 8.28D-08
 ErrMax= 8.28D-08  0.00D+00 EMaxC= 1.00D-01 BMatC= 8.36D-13 BMatP= 8.10D-12
 IDIUse=1 WtCom= 1.00D+00 WtEn= 0.00D+00
 Coeff-Com: -0.128D-03-0.125D-02 0.220D-02 0.248D-01 0.558D-02-0.175D+00
 Coeff-Com: -0.492D-01 0.119D+01
 Coeff:     -0.128D-03-0.125D-02 0.220D-02 0.248D-01 0.558D-02-0.175D+00
 Coeff:     -0.492D-01 0.119D+01
 Gap=     0.387 Goal=   None    Shift=    0.000
 Gap=     0.313 Goal=   None    Shift=    0.000
 RMSDP=1.66D-08 MaxDP=5.16D-07 DE=-7.84D-12 OVMax= 1.40D-06

 Cycle  18  Pass 1  IDiag  1:
 RMSU=  4.20D-09    CP:  1.00D+00  1.23D+00  1.22D+00  1.65D+00  1.90D+00
                    CP:  1.89D+00  1.44D+00  1.37D+00
 E= -270.780933396167     Delta-E=       -0.000000000001 Rises=F Damp=F
 DIIS: error= 1.69D-08 at cycle   9 NSaved=   9.
 NSaved= 9 IEnMin= 9 EnMin= -270.780933396167     IErMin= 9 ErrMin= 1.69D-08
 ErrMax= 1.69D-08  0.00D+00 EMaxC= 1.00D-01 BMatC= 8.82D-14 BMatP= 8.36D-13
 IDIUse=1 WtCom= 1.00D+00 WtEn= 0.00D+00
 Coeff-Com:  0.384D-03-0.381D-02-0.165D-02 0.142D-01 0.213D-01-0.619D-01
 Coeff-Com: -0.118D+00 0.225D+00 0.925D+00
 Coeff:      0.384D-03-0.381D-02-0.165D-02 0.142D-01 0.213D-01-0.619D-01
 Coeff:     -0.118D+00 0.225D+00 0.925D+00
 Gap=     0.387 Goal=   None    Shift=    0.000
 Gap=     0.313 Goal=   None    Shift=    0.000
 RMSDP=4.16D-09 MaxDP=1.43D-07 DE=-1.14D-12 OVMax= 2.92D-07

 SCF Done:  E(UwB97XD) =  -270.780933396     A.U. after   18 cycles
            NFock= 18  Conv=0.42D-08     -V/T= 2.0106
 <Sx>= 0.0000 <Sy>= 0.0000 <Sz>= 0.5000 <S**2>= 0.7537 S= 0.5018
 <L.S>=  0.00000000000    
 KE= 2.679298375910D+02 PE=-1.107285021261D+03 EE= 3.298760822845D+02
 Annihilation of the first spin contaminant:
 S**2 before annihilation     0.7537,   after     0.7500
 Leave Link  502 at Fri Aug 29 13:22:29 2025, MaxMem=   268435456 cpu:              77.0 elap:               9.7
 (Enter /apps/eb/gaussian/16-AVX2/g16/l508.exe)
 QCSCF skips out because SCF is already converged.
 Leave Link  508 at Fri Aug 29 13:22:30 2025, MaxMem=   268435456 cpu:               0.0 elap:               0.0
 (Enter /apps/eb/gaussian/16-AVX2/g16/l801.exe)
 DoSCS=F DFT=T ScalE2(SS,OS)=  1.000000  1.000000
 Range of M.O.s used for correlation:     1   129
 NBasis=   129 NAE=    24 NBE=    23 NFC=     0 NFV=     0
 NROrb=    129 NOA=    24 NOB=    23 NVA=   105 NVB=   106
 Leave Link  801 at Fri Aug 29 13:22:30 2025, MaxMem=   268435456 cpu:               0.1 elap:               0.0
 (Enter /apps/eb/gaussian/16-AVX2/g16/l1101.exe)
 Using compressed storage, NAtomX=    15.
 Will process     16 centers per pass.
   1 Symmetry operations used in ECPInt.
 ECPInt:  NShTT=    2016 NPrTT=    7008 LenC2=    2014 LenP2D=    6007.
 LDataN:  DoStor=T MaxTD1= 5 Len=  102
 R6Disp: Adding Grimme-D2 dispersion energy 1st derivatives to the gradient.
 Leave Link 1101 at Fri Aug 29 13:22:30 2025, MaxMem=   268435456 cpu:               0.6 elap:               0.1
 (Enter /apps/eb/gaussian/16-AVX2/g16/l1102.exe)
 Symmetrizing basis deriv contribution to polar:
 IMax=3 JMax=2 DiffMx= 0.00D+00
 Leave Link 1102 at Fri Aug 29 13:22:30 2025, MaxMem=   268435456 cpu:               0.1 elap:               0.0
 (Enter /apps/eb/gaussian/16-AVX2/g16/l1110.exe)
 Forming Gx(P) for the SCF density, NAtomX=    15.
 Integral derivatives from FoFJK, PRISM(SPDF).
 Do as many integral derivatives as possible in FoFJK.
 G2DrvN: MDV=     268433775.
 G2DrvN: will do    16 centers at a time, making    1 passes.
 Calling FoFCou, ICntrl=  3107 FMM=F I1Cent=   0 AccDes= 0.00D+00.
 FoFJK:  IHMeth= 1 ICntrl=    3107 DoSepK=T KAlg= 0 I1Cent=           0 FoldK=F
 IRaf=         1 NMat=       1 IRICut=       1 DoRegI=T DoRafI=F ISym2E= 0 IDoP0=0 IntGTp=1.
 FoFCou: FMM=F IPFlag=           0 FMFlag=      100000 FMFlg1=           0
         NFxFlg=           0 DoJE=F BraDBF=F KetDBF=F FulRan=T
         wScrn=  0.000000 ICntrl=      3507 IOpCl=  0 I1Cent=           0 NGrid=           0
         NMat0=    1 NMatS0=      1 NMatT0=    0 NMatD0=    1 NMtDS0=    0 NMtDT0=    0
 Symmetry not used in FoFCou.
 End of G2Drv F.D. properties file   721 does not exist.
 End of G2Drv F.D. properties file   722 does not exist.
 End of G2Drv F.D. properties file   788 does not exist.
 Leave Link 1110 at Fri Aug 29 13:22:41 2025, MaxMem=   268435456 cpu:              87.5 elap:              11.0
 (Enter /apps/eb/gaussian/16-AVX2/g16/l1002.exe)
 Minotr:  UHF open shell wavefunction.
          IDoAtm=111111111111111
          Direct CPHF calculation.
          Differentiating once with respect to nuclear coordinates.
          Requested convergence is 1.0D-08 RMS, and 1.0D-07 maximum.
          Secondary convergence is 1.0D-12 RMS, and 1.0D-12 maximum.
          NewPWx=T KeepS1=F KeepF1=F KeepIn=T MapXYZ=F SortEE=F KeepMc=T.
         4436 words used for storage of precomputed grid.
 Keep R1 and R2 ints in memory in canonical form, NReq=149402203.
 FoFCou: FMM=F IPFlag=           0 FMFlag=           0 FMFlg1=           0
         NFxFlg=           0 DoJE=F BraDBF=F KetDBF=F FulRan=T
         wScrn=  0.000000 ICntrl=       600 IOpCl=  0 I1Cent=           0 NGrid=           0
         NMat0=    1 NMatS0=   8385 NMatT0=    0 NMatD0=    1 NMtDS0=    0 NMtDT0=    0
 Symmetry not used in FoFCou.
 Two-electron integral symmetry not used.
          MDV=     268435456 using IRadAn=       1.
          Solving linear equations simultaneously, MaxMat=       0.
          There are    48 degrees of freedom in the 1st order CPHF.  IDoFFX=6 NUNeed=     0.
     42 vectors produced by pass  0 Test12= 1.03D-14 2.08D-09 XBig12= 1.30D-01 1.32D-01.
 AX will form    42 AO Fock derivatives at one time.
     42 vectors produced by pass  1 Test12= 1.03D-14 2.08D-09 XBig12= 2.04D-02 4.62D-02.
     42 vectors produced by pass  2 Test12= 1.03D-14 2.08D-09 XBig12= 6.43D-04 4.43D-03.
     42 vectors produced by pass  3 Test12= 1.03D-14 2.08D-09 XBig12= 9.30D-06 4.29D-04.
     42 vectors produced by pass  4 Test12= 1.03D-14 2.08D-09 XBig12= 1.37D-07 6.28D-05.
     42 vectors produced by pass  5 Test12= 1.03D-14 2.08D-09 XBig12= 1.76D-09 9.83D-06.
     42 vectors produced by pass  6 Test12= 1.03D-14 2.08D-09 XBig12= 1.44D-11 4.85D-07.
     18 vectors produced by pass  7 Test12= 1.03D-14 2.08D-09 XBig12= 1.20D-13 5.07D-08.
      1 vectors produced by pass  8 Test12= 1.03D-14 2.08D-09 XBig12= 8.87D-16 4.46D-09.
 InvSVY:  IOpt=1 It=  1 EMax= 2.22D-15
 Solved reduced A of dimension   313 with    42 vectors.
 End of Minotr F.D. properties file   721 does not exist.
 End of Minotr F.D. properties file   722 does not exist.
 End of Minotr F.D. properties file   788 does not exist.
 Leave Link 1002 at Fri Aug 29 13:22:53 2025, MaxMem=   268435456 cpu:             100.9 elap:              12.7
 (Enter /apps/eb/gaussian/16-AVX2/g16/l601.exe)
 Copying SCF densities to generalized density rwf, IOpCl= 1 IROHF=0.

 **********************************************************************

            Population analysis using the SCF Density.

 **********************************************************************

 Orbital symmetries:
 Alpha Orbitals:
       Occupied  (A) (A) (A) (A) (A) (A) (A) (A) (A) (A) (A) (A)
                 (A) (A) (A) (A) (A) (A) (A) (A) (A) (A) (A) (A)
       Virtual   (A) (A) (A) (A) (A) (A) (A) (A) (A) (A) (A) (A)
                 (A) (A) (A) (A) (A) (A) (A) (A) (A) (A) (A) (A)
                 (A) (A) (A) (A) (A) (A) (A) (A) (A) (A) (A) (A)
                 (A) (A) (A) (A) (A) (A) (A) (A) (A) (A) (A) (A)
                 (A) (A) (A) (A) (A) (A) (A) (A) (A) (A) (A) (A)
                 (A) (A) (A) (A) (A) (A) (A) (A) (A) (A) (A) (A)
                 (A) (A) (A) (A) (A) (A) (A) (A) (A) (A) (A) (A)
                 (A) (A) (A) (A) (A) (A) (A) (A) (A) (A) (A) (A)
                 (A) (A) (A) (A) (A) (A) (A) (A) (A)
 Beta  Orbitals:
       Occupied  (A) (A) (A) (A) (A) (A) (A) (A) (A) (A) (A) (A)
                 (A) (A) (A) (A) (A) (A) (A) (A) (A) (A) (A)
       Virtual   (A) (A) (A) (A) (A) (A) (A) (A) (A) (A) (A) (A)
                 (A) (A) (A) (A) (A) (A) (A) (A) (A) (A) (A) (A)
                 (A) (A) (A) (A) (A) (A) (A) (A) (A) (A) (A) (A)
                 (A) (A) (A) (A) (A) (A) (A) (A) (A) (A) (A) (A)
                 (A) (A) (A) (A) (A) (A) (A) (A) (A) (A) (A) (A)
                 (A) (A) (A) (A) (A) (A) (A) (A) (A) (A) (A) (A)
                 (A) (A) (A) (A) (A) (A) (A) (A) (A) (A) (A) (A)
                 (A) (A) (A) (A) (A) (A) (A) (A) (A) (A) (A) (A)
                 (A) (A) (A) (A) (A) (A) (A) (A) (A) (A)
 The electronic state is 2-A.
 Alpha  occ. eigenvalues --  -19.25622 -10.31138 -10.31059 -10.29490 -10.29489
 Alpha  occ. eigenvalues --  -10.28807  -1.04032  -0.94171  -0.80248  -0.79911
 Alpha  occ. eigenvalues --   -0.66082  -0.62194  -0.59317  -0.56000  -0.50259
 Alpha  occ. eigenvalues --   -0.48352  -0.47264  -0.44922  -0.43787  -0.43179
 Alpha  occ. eigenvalues --   -0.42349  -0.41110  -0.37143  -0.30435
 Alpha virt. eigenvalues --    0.08249   0.13467   0.16451   0.18332   0.19045
 Alpha virt. eigenvalues --    0.20135   0.21256   0.21794   0.23564   0.25860
 Alpha virt. eigenvalues --    0.27753   0.27834   0.34971   0.39225   0.46350
 Alpha virt. eigenvalues --    0.50810   0.51139   0.54689   0.56410   0.57429
 Alpha virt. eigenvalues --    0.58523   0.63924   0.67076   0.68198   0.70534
 Alpha virt. eigenvalues --    0.70563   0.72094   0.72110   0.74032   0.75295
 Alpha virt. eigenvalues --    0.76255   0.77407   0.77603   0.78889   0.79730
 Alpha virt. eigenvalues --    0.80793   0.82794   0.83332   0.87099   0.90684
 Alpha virt. eigenvalues --    0.97308   1.07184   1.08434   1.15289   1.16714
 Alpha virt. eigenvalues --    1.22147   1.22154   1.27300   1.30935   1.36522
 Alpha virt. eigenvalues --    1.44348   1.49404   1.53480   1.55684   1.60777
 Alpha virt. eigenvalues --    1.65100   1.66208   1.70256   1.75634   1.79302
 Alpha virt. eigenvalues --    1.80073   1.83574   1.84735   1.87847   1.88589
 Alpha virt. eigenvalues --    1.92756   1.94194   1.95239   1.98288   2.00120
 Alpha virt. eigenvalues --    2.00222   2.03427   2.05798   2.06193   2.11241
 Alpha virt. eigenvalues --    2.13583   2.19529   2.26204   2.27752   2.30606
 Alpha virt. eigenvalues --    2.36552   2.41206   2.42149   2.51064   2.51272
 Alpha virt. eigenvalues --    2.52758   2.58085   2.66491   2.71291   2.72416
 Alpha virt. eigenvalues --    2.76118   2.81144   2.84925   2.86826   2.87205
 Alpha virt. eigenvalues --    2.94310   3.02539   3.04527   3.07798   3.08256
 Alpha virt. eigenvalues --    3.09040   3.09933   3.15866   3.38693   3.82378
  Beta  occ. eigenvalues --  -19.23731 -10.30952 -10.30876 -10.29500 -10.29500
  Beta  occ. eigenvalues --  -10.28806  -0.98385  -0.93554  -0.79809  -0.79789
  Beta  occ. eigenvalues --   -0.65936  -0.61919  -0.59131  -0.55578  -0.48228
  Beta  occ. eigenvalues --   -0.47944  -0.46656  -0.43662  -0.43206  -0.42335
  Beta  occ. eigenvalues --   -0.42131  -0.34655  -0.33105
  Beta virt. eigenvalues --   -0.01832   0.09633   0.13666   0.16637   0.18427
  Beta virt. eigenvalues --    0.19070   0.20574   0.21374   0.21856   0.23601
  Beta virt. eigenvalues --    0.26006   0.27808   0.27861   0.35023   0.39384
  Beta virt. eigenvalues --    0.46494   0.51051   0.51422   0.54867   0.56818
  Beta virt. eigenvalues --    0.57517   0.58742   0.64282   0.67457   0.68900
  Beta virt. eigenvalues --    0.70642   0.70657   0.72314   0.72543   0.74477
  Beta virt. eigenvalues --    0.75391   0.76355   0.77589   0.77807   0.79576
  Beta virt. eigenvalues --    0.79782   0.80839   0.83402   0.83477   0.87582
  Beta virt. eigenvalues --    0.91175   0.97602   1.08482   1.11299   1.16516
  Beta virt. eigenvalues --    1.17284   1.22313   1.23252   1.27421   1.32283
  Beta virt. eigenvalues --    1.36883   1.44377   1.49607   1.54684   1.55699
  Beta virt. eigenvalues --    1.62153   1.65861   1.66415   1.70285   1.75904
  Beta virt. eigenvalues --    1.79473   1.80178   1.83820   1.84847   1.87947
  Beta virt. eigenvalues --    1.88630   1.92876   1.94260   1.95560   1.98774
  Beta virt. eigenvalues --    2.00256   2.00365   2.03600   2.05906   2.06610
  Beta virt. eigenvalues --    2.11540   2.13765   2.19682   2.26732   2.28003
  Beta virt. eigenvalues --    2.32225   2.36777   2.41247   2.42379   2.51310
  Beta virt. eigenvalues --    2.51664   2.53248   2.58746   2.66599   2.71417
  Beta virt. eigenvalues --    2.72677   2.77817   2.84437   2.86718   2.88963
  Beta virt. eigenvalues --    2.90820   2.94972   3.02714   3.08102   3.08363
  Beta virt. eigenvalues --    3.09306   3.10370   3.11382   3.15974   3.38961
  Beta virt. eigenvalues --    3.84742
          Condensed to atoms (all electrons):
               1          2          3          4          5          6
     1  C    4.975876   0.514888   0.421997  -0.028252  -0.049574  -0.063776
     2  C    0.514888   4.975806  -0.049569   0.328404   0.422000  -0.063767
     3  H    0.421997  -0.049569   0.631762   0.010516  -0.007403   0.006081
     4  C   -0.028252   0.328404   0.010516   4.706426  -0.042090   0.417880
     5  H   -0.049574   0.422000  -0.007403  -0.042090   0.631759   0.006080
     6  C   -0.063776  -0.063767   0.006081   0.417880   0.006080   4.681948
     7  H   -0.008289  -0.017694  -0.000316   0.367305   0.000017  -0.019795
     8  H    0.000682  -0.008982  -0.000288   0.370284  -0.002512  -0.016119
     9  C    0.328391  -0.028254  -0.042095  -0.120219   0.010517   0.417870
    10  H    0.006382   0.006382  -0.000265  -0.019482  -0.000265   0.375504
    11  H   -0.002911  -0.002914  -0.000104  -0.010724  -0.000104   0.371675
    12  H   -0.017697  -0.008285   0.000014   0.003856  -0.000315  -0.019794
    13  H   -0.008980   0.000679  -0.002510   0.007361  -0.000288  -0.016120
    14  O    0.026955   0.026963  -0.001470  -0.010116  -0.001470  -0.004913
    15  H    0.001517   0.001510   0.000754  -0.000006   0.000755   0.000432
               7          8          9         10         11         12
     1  C   -0.008289   0.000682   0.328391   0.006382  -0.002911  -0.017697
     2  C   -0.017694  -0.008982  -0.028254   0.006382  -0.002914  -0.008285
     3  H   -0.000316  -0.000288  -0.042095  -0.000265  -0.000104   0.000014
     4  C    0.367305   0.370284  -0.120219  -0.019482  -0.010724   0.003856
     5  H    0.000017  -0.002512   0.010517  -0.000265  -0.000104  -0.000315
     6  C   -0.019795  -0.016119   0.417870   0.375504   0.371675  -0.019794
     7  H    0.660969  -0.026437   0.003858  -0.011381   0.006400   0.002490
     8  H   -0.026437   0.637645   0.007360   0.002416  -0.013917  -0.000643
     9  C    0.003858   0.007360   4.706455  -0.019483  -0.010724   0.367305
    10  H   -0.011381   0.002416  -0.019483   0.664145  -0.024817  -0.011380
    11  H    0.006400  -0.013917  -0.010724  -0.024817   0.626886   0.006400
    12  H    0.002490  -0.000643   0.367305  -0.011380   0.006400   0.660972
    13  H   -0.000643   0.000022   0.370285   0.002415  -0.013917  -0.026438
    14  O    0.000420   0.002917  -0.010113   0.000116   0.010290   0.000420
    15  H   -0.000027  -0.000155  -0.000006  -0.000027  -0.000732  -0.000027
              13         14         15
     1  C   -0.008980   0.026955   0.001517
     2  C    0.000679   0.026963   0.001510
     3  H   -0.002510  -0.001470   0.000754
     4  C    0.007361  -0.010116  -0.000006
     5  H   -0.000288  -0.001470   0.000755
     6  C   -0.016120  -0.004913   0.000432
     7  H   -0.000643   0.000420  -0.000027
     8  H    0.000022   0.002917  -0.000155
     9  C    0.370285  -0.010113  -0.000006
    10  H    0.002415   0.000116  -0.000027
    11  H   -0.013917   0.010290  -0.000732
    12  H   -0.026438   0.000420  -0.000027
    13  H    0.637645   0.002915  -0.000154
    14  O    0.002915   7.951406   0.278310
    15  H   -0.000154   0.278310   0.551818
          Atomic-Atomic Spin Densities.
               1          2          3          4          5          6
     1  C    0.112616   0.039935   0.001096  -0.000534   0.000399  -0.001782
     2  C    0.039935   0.112515   0.000398   0.000917   0.001096  -0.001780
     3  H    0.001096   0.000398  -0.006671  -0.000201   0.000053   0.000054
     4  C   -0.000534   0.000917  -0.000201  -0.013494   0.000077   0.003259
     5  H    0.000399   0.001096   0.000053   0.000077  -0.006666   0.000054
     6  C   -0.001782  -0.001780   0.000054   0.003259   0.000054  -0.003366
     7  H   -0.000920  -0.004556   0.000032   0.005134   0.000276   0.000363
     8  H    0.000281  -0.000564  -0.000014  -0.001200  -0.000208  -0.000362
     9  C    0.000915  -0.000532   0.000077  -0.001990  -0.000201   0.003260
    10  H   -0.000074  -0.000074   0.000004   0.000265   0.000004   0.000004
    11  H    0.000601   0.000602   0.000010  -0.000809   0.000010   0.001765
    12  H   -0.004561  -0.000919   0.000276   0.000361   0.000032   0.000363
    13  H   -0.000564   0.000280  -0.000208  -0.000042  -0.000014  -0.000362
    14  O   -0.045744  -0.045752  -0.000309   0.003002  -0.000308  -0.001862
    15  H    0.002935   0.002935   0.000067  -0.000112   0.000067   0.000095
               7          8          9         10         11         12
     1  C   -0.000920   0.000281   0.000915  -0.000074   0.000601  -0.004561
     2  C   -0.004556  -0.000564  -0.000532  -0.000074   0.000602  -0.000919
     3  H    0.000032  -0.000014   0.000077   0.000004   0.000010   0.000276
     4  C    0.005134  -0.001200  -0.001990   0.000265  -0.000809   0.000361
     5  H    0.000276  -0.000208  -0.000201   0.000004   0.000010   0.000032
     6  C    0.000363  -0.000362   0.003260   0.000004   0.001765   0.000363
     7  H    0.004750  -0.001787   0.000361   0.000002   0.000140   0.000082
     8  H   -0.001787   0.007535  -0.000042  -0.000024  -0.000574  -0.000041
     9  C    0.000361  -0.000042  -0.013506   0.000265  -0.000809   0.005135
    10  H    0.000002  -0.000024   0.000265  -0.000680  -0.000024   0.000002
    11  H    0.000140  -0.000574  -0.000809  -0.000024   0.001005   0.000140
    12  H    0.000082  -0.000041   0.005135   0.000002   0.000140   0.004759
    13  H   -0.000041   0.000070  -0.001199  -0.000025  -0.000574  -0.001789
    14  O   -0.000282   0.001235   0.003003  -0.000037  -0.001994  -0.000282
    15  H    0.000031  -0.000142  -0.000112   0.000003   0.000179   0.000031
              13         14         15
     1  C   -0.000564  -0.045744   0.002935
     2  C    0.000280  -0.045752   0.002935
     3  H   -0.000208  -0.000309   0.000067
     4  C   -0.000042   0.003002  -0.000112
     5  H   -0.000014  -0.000308   0.000067
     6  C   -0.000362  -0.001862   0.000095
     7  H   -0.000041  -0.000282   0.000031
     8  H    0.000070   0.001235  -0.000142
     9  C   -0.001199   0.003003  -0.000112
    10  H   -0.000025  -0.000037   0.000003
    11  H   -0.000574  -0.001994   0.000179
    12  H   -0.001789  -0.000282   0.000031
    13  H    0.007541   0.001235  -0.000142
    14  O    0.001235   0.900457   0.003257
    15  H   -0.000142   0.003257  -0.026900
 Mulliken charges and spin densities:
               1          2
     1  C   -0.097210   0.104600
     2  C   -0.097169   0.104501
     3  H    0.032895  -0.005335
     4  C    0.018856  -0.005366
     5  H    0.032893  -0.005328
     6  C   -0.073188  -0.000298
     7  H    0.043124   0.003585
     8  H    0.047728   0.004165
     9  C    0.018852  -0.005374
    10  H    0.029742  -0.000387
    11  H    0.059215  -0.000332
    12  H    0.043122   0.003590
    13  H    0.047728   0.004168
    14  O   -0.272630   0.815619
    15  H    0.166040  -0.017808
 Sum of Mulliken charges =  -0.00000   1.00000
 Mulliken charges and spin densities with hydrogens summed into heavy atoms:
               1          2
     1  C   -0.064314   0.099265
     2  C   -0.064275   0.099173
     4  C    0.109708   0.002384
     6  C    0.015769  -0.001017
     9  C    0.109702   0.002384
    14  O   -0.106589   0.797811
 APT charges:
               1
     1  C   -0.520542
     2  C   -0.520424
     3  H    0.427444
     4  C   -0.573706
     5  H    0.427395
     6  C   -0.668949
     7  H    0.381623
     8  H    0.333388
     9  C   -0.573707
    10  H    0.433308
    11  H    0.247541
    12  H    0.381630
    13  H    0.333395
    14  O   -0.606437
    15  H    0.498040
 Sum of APT charges =  -0.00000
 APT charges with hydrogens summed into heavy atoms:
               1
     1  C   -0.093098
     2  C   -0.093029
     4  C    0.141305
     6  C    0.011900
     9  C    0.141318
    14  O   -0.108397
 Electronic spatial extent (au):  <R**2>=            557.6238
 Charge=             -0.0000 electrons
 Dipole moment (field-independent basis, Debye):
    X=             -0.0482    Y=              0.0006    Z=              1.6562  Tot=              1.6569
 Quadrupole moment (field-independent basis, Debye-Ang):
   XX=            -33.6912   YY=            -36.0672   ZZ=            -38.5498
   XY=             -0.0013   XZ=             -3.1645   YZ=              0.0000
 Traceless Quadrupole moment (field-independent basis, Debye-Ang):
   XX=              2.4115   YY=              0.0356   ZZ=             -2.4471
   XY=             -0.0013   XZ=             -3.1645   YZ=              0.0000
 Octapole moment (field-independent basis, Debye-Ang**2):
  XXX=            -22.0433  YYY=              0.0010  ZZZ=             -4.1640  XYY=             -3.2402
  XXY=              0.0035  XXZ=              3.6121  XZZ=             -2.2757  YZZ=              0.0003
  YYZ=              0.2371  XYZ=              0.0002
 Hexadecapole moment (field-independent basis, Debye-Ang**3):
 XXXX=           -256.7676 YYYY=           -231.0153 ZZZZ=           -178.7321 XXXY=             -0.0109
 XXXZ=              3.5556 YYYX=             -0.0002 YYYZ=              0.0024 ZZZX=              1.9230
 ZZZY=              0.0009 XXYY=            -91.5089 XXZZ=            -82.8661 YYZZ=            -64.7716
 XXYZ=             -0.0018 YYXZ=              0.0563 ZZXY=             -0.0001
 N-N= 2.386981679895D+02 E-N=-1.107285019378D+03  KE= 2.679298375910D+02
  Exact polarizability:       0.000       0.000       0.000       0.000       0.000       0.000
 Approx polarizability:      64.669       0.002      67.931       5.728      -0.000      62.868
                          Isotropic Fermi Contact Couplings
        Atom                 a.u.       MegaHertz       Gauss      10(-4) cm-1
     1  C(13)              0.04226      47.50923      16.95247      15.84737
     2  C(13)              0.04222      47.46052      16.93509      15.83112
     3  H(1)              -0.00175      -7.82783      -2.79316      -2.61108
     4  C(13)             -0.00553      -6.21185      -2.21654      -2.07205
     5  H(1)              -0.00175      -7.81916      -2.79007      -2.60819
     6  C(13)             -0.00020      -0.22551      -0.08047      -0.07522
     7  H(1)               0.00233      10.41912       3.71780       3.47544
     8  H(1)               0.00159       7.12221       2.54138       2.37571
     9  C(13)             -0.00553      -6.21964      -2.21932      -2.07465
    10  H(1)              -0.00015      -0.65750      -0.23461      -0.21932
    11  H(1)               0.00029       1.27955       0.45658       0.42681
    12  H(1)               0.00233      10.42977       3.72160       3.47900
    13  H(1)               0.00159       7.12792       2.54342       2.37762
    14  O(17)              0.32847    -199.12013     -71.05101     -66.41933
    15  H(1)              -0.01092     -48.79466     -17.41115     -16.27615
 --------------------------------------------------------
       Center         ----  Spin Dipole Couplings  ----
                      3XX-RR        3YY-RR        3ZZ-RR
 --------------------------------------------------------
     1   Atom        0.015523     -0.074905      0.059382
     2   Atom        0.015453     -0.074862      0.059409
     3   Atom       -0.005870     -0.000870      0.006740
     4   Atom        0.003524     -0.002239     -0.001284
     5   Atom       -0.005868     -0.000879      0.006747
     6   Atom        0.007919     -0.006544     -0.001375
     7   Atom        0.003430     -0.000813     -0.002617
     8   Atom        0.001230      0.002571     -0.003801
     9   Atom        0.003528     -0.002242     -0.001286
    10   Atom        0.003972     -0.002425     -0.001547
    11   Atom        0.008873     -0.006949     -0.001924
    12   Atom        0.003432     -0.000815     -0.002617
    13   Atom        0.001232      0.002567     -0.003799
    14   Atom        0.270087     -1.549482      1.279396
    15   Atom        0.089417     -0.111799      0.022383
 --------------------------------------------------------
                        XY            XZ            YZ
 --------------------------------------------------------
     1   Atom        0.025096      0.127093      0.030784
     2   Atom       -0.025082      0.127021     -0.030784
     3   Atom       -0.006133      0.000127      0.014773
     4   Atom       -0.007361      0.002382      0.000315
     5   Atom        0.006134      0.000121     -0.014768
     6   Atom       -0.000002     -0.001928      0.000001
     7   Atom       -0.004220      0.001084     -0.000185
     8   Atom       -0.006898     -0.000239      0.001216
     9   Atom        0.007360      0.002382     -0.000314
    10   Atom       -0.000001     -0.001301      0.000000
    11   Atom       -0.000002     -0.006378      0.000002
    12   Atom        0.004220      0.001082      0.000184
    13   Atom        0.006898     -0.000242     -0.001219
    14   Atom        0.000407      2.258674      0.000519
    15   Atom       -0.000079     -0.088562      0.000070
 --------------------------------------------------------


 ---------------------------------------------------------------------------------
              Anisotropic Spin Dipole Couplings in Principal Axis System
 ---------------------------------------------------------------------------------

       Atom             a.u.   MegaHertz   Gauss  10(-4) cm-1        Axes

              Baa    -0.0916   -12.286    -4.384    -4.098  0.7575  0.0602 -0.6501
     1 C(13)  Bbb    -0.0812   -10.901    -3.890    -3.636 -0.1484  0.9856 -0.0816
              Bcc     0.1728    23.187     8.274     7.734  0.6358  0.1583  0.7555
 
              Baa    -0.0915   -12.281    -4.382    -4.096  0.7576 -0.0604 -0.6499
     2 C(13)  Bbb    -0.0812   -10.895    -3.888    -3.634  0.1485  0.9855  0.0816
              Bcc     0.1727    23.176     8.270     7.731  0.6356 -0.1584  0.7556
 
              Baa    -0.0151    -8.044    -2.870    -2.683  0.4876  0.7216 -0.4915
     3 H(1)   Bbb    -0.0037    -1.961    -0.700    -0.654  0.8598 -0.2991  0.4138
              Bcc     0.0188    10.005     3.570     3.337 -0.1516  0.6243  0.7663
 
              Baa    -0.0077    -1.030    -0.368    -0.344  0.5683  0.7838 -0.2503
     4 C(13)  Bbb    -0.0012    -0.160    -0.057    -0.053 -0.0029  0.3061  0.9520
              Bcc     0.0089     1.190     0.425     0.397  0.8228 -0.5403  0.1763
 
              Baa    -0.0151    -8.042    -2.870    -2.683 -0.4875  0.7218  0.4913
     5 H(1)   Bbb    -0.0037    -1.961    -0.700    -0.654  0.8599  0.2991  0.4138
              Bcc     0.0187    10.003     3.569     3.337 -0.1517 -0.6241  0.7664
 
              Baa    -0.0065    -0.878    -0.313    -0.293  0.0001  1.0000 -0.0002
     6 C(13)  Bbb    -0.0018    -0.236    -0.084    -0.079  0.1954  0.0002  0.9807
              Bcc     0.0083     1.114     0.398     0.372  0.9807 -0.0002 -0.1954
 
              Baa    -0.0036    -1.924    -0.687    -0.642  0.5132  0.7471 -0.4225
     7 H(1)   Bbb    -0.0025    -1.357    -0.484    -0.453  0.1320  0.4177  0.8990
              Bcc     0.0062     3.282     1.171     1.095  0.8481 -0.5171  0.1157
 
              Baa    -0.0053    -2.836    -1.012    -0.946  0.6554  0.6360 -0.4074
     8 H(1)   Bbb    -0.0036    -1.923    -0.686    -0.641  0.3546  0.2171  0.9095
              Bcc     0.0089     4.759     1.698     1.587 -0.6669  0.7405  0.0833
 
              Baa    -0.0077    -1.030    -0.368    -0.344 -0.5682  0.7839  0.2502
     9 C(13)  Bbb    -0.0012    -0.160    -0.057    -0.053 -0.0031 -0.3061  0.9520
              Bcc     0.0089     1.190     0.425     0.397  0.8229  0.5401  0.1763
 
              Baa    -0.0024    -1.294    -0.462    -0.432  0.0001  1.0000 -0.0004
    10 H(1)   Bbb    -0.0018    -0.981    -0.350    -0.327  0.2186  0.0004  0.9758
              Bcc     0.0043     2.275     0.812     0.759  0.9758 -0.0002 -0.2186
 
              Baa    -0.0069    -3.708    -1.323    -1.237  0.0000  1.0000 -0.0003
    11 H(1)   Bbb    -0.0049    -2.605    -0.929    -0.869  0.4207  0.0003  0.9072
              Bcc     0.0118     6.312     2.252     2.106  0.9072 -0.0001 -0.4207
 
              Baa    -0.0036    -1.924    -0.687    -0.642 -0.5130  0.7476  0.4219
    12 H(1)   Bbb    -0.0025    -1.357    -0.484    -0.453  0.1317 -0.4171  0.8993
              Bcc     0.0062     3.282     1.171     1.095  0.8482  0.5169  0.1155
 
              Baa    -0.0053    -2.836    -1.012    -0.946  0.6553 -0.6364 -0.4069
    13 H(1)   Bbb    -0.0036    -1.923    -0.686    -0.641  0.3545 -0.2166  0.9096
              Bcc     0.0089     4.759     1.698     1.587  0.6670  0.7403 -0.0836
 
              Baa    -1.5495   112.119    40.007    37.399  0.0005  1.0000 -0.0006
    14 O(17)  Bbb    -1.5396   111.406    39.752    37.161  0.7804 -0.0008 -0.6253
              Bcc     3.0891  -223.526   -79.759   -74.560  0.6253  0.0001  0.7804
 
              Baa    -0.1118   -59.651   -21.285   -19.897  0.0002  1.0000 -0.0004
    15 H(1)   Bbb    -0.0388   -20.698    -7.385    -6.904  0.5683  0.0002  0.8228
              Bcc     0.1506    80.349    28.670    26.801  0.8228 -0.0004 -0.5683
 

 ---------------------------------------------------------------------------------

 No NMR shielding tensors so no spin-rotation constants.
 Leave Link  601 at Fri Aug 29 13:22:54 2025, MaxMem=   268435456 cpu:               0.8 elap:               0.1
 (Enter /apps/eb/gaussian/16-AVX2/g16/l701.exe)
 ... and contract with generalized density number  0.
 Compute integral second derivatives.
 R6Disp: Adding Grimme-D2 dispersion energy 2nd derivatives to the Hessian.
   1 Symmetry operations used in ECPInt.
 ECPInt:  NShTT=    2016 NPrTT=    7008 LenC2=    2014 LenP2D=    6007.
 LDataN:  DoStor=T MaxTD1= 6 Len=  172
 Leave Link  701 at Fri Aug 29 13:22:54 2025, MaxMem=   268435456 cpu:               0.6 elap:               0.1
 (Enter /apps/eb/gaussian/16-AVX2/g16/l702.exe)
 L702 exits ... SP integral derivatives will be done elsewhere.
 Leave Link  702 at Fri Aug 29 13:22:54 2025, MaxMem=   268435456 cpu:               0.1 elap:               0.0
 (Enter /apps/eb/gaussian/16-AVX2/g16/l703.exe)
 Integral derivatives from FoFJK, PRISM(SPDF).
 Compute integral second derivatives, UseDBF=F ICtDFT=           0.
 Calling FoFJK, ICntrl=    100127 FMM=F ISym2X=0 I1Cent= 0 IOpClX= 1 NMat=1 NMatS=1 NMatT=0.
 FoFJK:  IHMeth= 1 ICntrl=  100127 DoSepK=T KAlg= 0 I1Cent=           0 FoldK=F
 IRaf=         1 NMat=       1 IRICut=       1 DoRegI=T DoRafI=F ISym2E= 0 IDoP0=0 IntGTp=1.
 FoFCou: FMM=F IPFlag=           0 FMFlag=      100000 FMFlg1=         800
         NFxFlg=           0 DoJE=F BraDBF=F KetDBF=F FulRan=T
         wScrn=  0.000000 ICntrl=    100527 IOpCl=  0 I1Cent=           0 NGrid=           0
         NMat0=    1 NMatS0=      1 NMatT0=    0 NMatD0=    1 NMtDS0=    0 NMtDT0=    0
 Symmetry not used in FoFCou.
 Leave Link  703 at Fri Aug 29 13:23:12 2025, MaxMem=   268435456 cpu:             147.6 elap:              18.6
 (Enter /apps/eb/gaussian/16-AVX2/g16/l716.exe)
 Dipole        =-1.89724708D-02 2.22949037D-04 6.51613007D-01
 Polarizability= 0.00000000D+00 0.00000000D+00 0.00000000D+00
                 0.00000000D+00 0.00000000D+00 0.00000000D+00
 ***** Axes restored to original set *****
 -------------------------------------------------------------------
 Center     Atomic                   Forces (Hartrees/Bohr)
 Number     Number              X              Y              Z
 -------------------------------------------------------------------
      1        6           0.000004374   -0.000030812    0.000051972
      2        6           0.000002622    0.000006997   -0.000051094
      3        1          -0.000005967    0.000024181    0.000004929
      4        6          -0.000007584    0.000021532   -0.000018013
      5        1          -0.000006666    0.000000118   -0.000006238
      6        6           0.000027305   -0.000026368   -0.000000239
      7        1          -0.000002952   -0.000015156    0.000005988
      8        1           0.000000218   -0.000002636   -0.000005569
      9        6          -0.000007296    0.000018832    0.000019161
     10        1           0.000003483    0.000000913   -0.000000075
     11        1          -0.000005239    0.000022994    0.000000089
     12        1          -0.000002512   -0.000015741   -0.000005195
     13        1           0.000000832   -0.000001721    0.000005184
     14        8          -0.000007940   -0.000003935   -0.000000461
     15        1           0.000007321    0.000000801   -0.000000437
 -------------------------------------------------------------------
 Cartesian Forces:  Max     0.000051972 RMS     0.000015952
 -----------------------------------------------------------------------------------------------
                       Internal Coordinate Forces (Hartree/Bohr or radian)
  Cent   Atom   N1       Length/X         N2         Alpha/Y        N3         Beta/Z          J
 -----------------------------------------------------------------------------------------------
      1  C 
      2  C        1  -0.000056(     1)
      3  H        1  -0.000008(     2)      2  -0.000001(    15)
      4  C        2  -0.000005(     3)      1  -0.000009(    16)      3  -0.000015(    28)     0
      5  H        2  -0.000009(     4)      1  -0.000003(    17)      4   0.000000(    29)     0
      6  C        4  -0.000025(     5)      2  -0.000019(    18)      1  -0.000002(    30)     0
      7  H        4   0.000017(     6)      2   0.000001(    19)      6  -0.000001(    31)     0
      8  H        4  -0.000006(     7)      2   0.000000(    20)      6   0.000003(    32)     0
      9  C        6  -0.000021(     8)      4  -0.000012(    21)      2   0.000002(    33)     0
     10  H        6  -0.000003(     9)      4  -0.000001(    22)      9  -0.000002(    34)     0
     11  H        6   0.000024(    10)      4  -0.000001(    23)      9   0.000001(    35)     0
     12  H        9   0.000017(    11)      6  -0.000002(    24)      4   0.000001(    36)     0
     13  H        9  -0.000005(    12)      6  -0.000003(    25)     12   0.000003(    37)     0
     14  O        1  -0.000003(    13)      2  -0.000000(    26)      3  -0.000004(    38)     0
     15  H       14   0.000007(    14)      1   0.000000(    27)      2   0.000001(    39)     0
 -----------------------------------------------------------------------------------------------
 Internal  Forces:  Max     0.000056003 RMS     0.000012884
 Force constants in internal coordinates: 
                1             2             3             4             5 
      1  0.673430D+00
      2  0.889859D-02  0.365274D+00
      3 -0.152153D-02  0.676114D-02  0.519764D+00
      4 -0.609754D-03  0.446127D-03 -0.135211D-03  0.365278D+00
      5 -0.128739D+00 -0.400862D-02  0.146957D+00  0.236629D-02  0.529296D+00
      6 -0.102349D-02  0.195800D-03  0.747831D-02  0.323200D-03  0.422175D-02
      7  0.169741D-03  0.169342D-03  0.398292D-02  0.289531D-03  0.170245D-02
      8 -0.264032D-01 -0.714624D-02 -0.926202D-01  0.136982D-02  0.310877D-02
      9  0.972789D-03  0.157054D-03  0.208265D-02  0.157061D-03  0.151599D-02
     10  0.760692D-03  0.106543D-03 -0.113608D-02  0.106538D-03  0.232603D-02
     11 -0.554316D-02  0.323156D-03  0.418363D-02  0.195841D-03  0.672875D-02
     12 -0.521749D-02  0.289622D-03 -0.514716D-03  0.169264D-03  0.711247D-02
     13  0.172903D-01 -0.515688D-03 -0.135217D-02 -0.426579D-03 -0.159109D-02
     14  0.316574D-02  0.741495D-04 -0.149708D-02  0.744252D-04 -0.112399D-02
     15 -0.905907D-02  0.119263D-02 -0.423843D-01 -0.844262D-03  0.706732D-02
     16 -0.286101D-01  0.338047D-01  0.692987D+00 -0.247180D-01  0.408286D+00
     17  0.173148D-01 -0.844432D-03 -0.233407D-01  0.119222D-02  0.356196D-02
     18 -0.429775D+00  0.131812D-01  0.977925D+00  0.392000D-02  0.107027D+01
     19  0.250305D-02  0.339567D-03  0.284643D-01  0.536061D-03 -0.177231D-01
     20  0.525960D-02  0.910064D-03  0.285717D-01 -0.101841D-04 -0.127783D-01
     21 -0.431130D+00 -0.827975D-02  0.392903D+00  0.424096D-02  0.846274D+00
     22 -0.406024D-02 -0.263675D-03  0.124895D-02  0.114085D-02  0.325063D-01
     23 -0.406002D-03 -0.573823D-05 -0.151408D-02  0.214229D-03  0.385451D-01
     24  0.996574D-02 -0.286169D-03 -0.400600D-03  0.123896D-03 -0.303856D-02
     25  0.199411D-01  0.325712D-03  0.570627D-02  0.128540D-03 -0.184431D-01
     26  0.269601D-01  0.725206D-04 -0.587354D-03 -0.132599D-02 -0.351862D-02
     27 -0.135043D-02  0.984900D-03  0.176027D-02  0.478510D-03  0.111859D-02
     28 -0.111255D-02  0.501072D-04  0.144575D-01  0.172026D-02  0.218254D-02
     29 -0.203414D-02  0.319102D-04 -0.139290D-02  0.169601D-02  0.369436D-02
     30 -0.941273D-02 -0.107230D-02  0.171191D-02  0.397664D-03 -0.325124D-01
     31 -0.376119D-03  0.270840D-03  0.374531D-02 -0.698649D-04  0.227307D-01
     32  0.281441D-03 -0.542824D-03 -0.166084D-02 -0.331067D-03 -0.277315D-01
     33 -0.109242D+00  0.202614D-02  0.195150D+00 -0.225755D-04  0.215273D+00
     34  0.640748D-02  0.107128D-02  0.115053D-01  0.319600D-03  0.174323D-02
     35 -0.413401D-02 -0.220496D-03 -0.988558D-03 -0.863050D-04  0.828533D-02
     36  0.154584D-01  0.288609D-03  0.151259D-01 -0.595978D-03 -0.313106D-01
     37  0.381137D-01 -0.136216D-03  0.802130D-02 -0.991581D-03 -0.508751D-01
     38  0.232646D-02  0.186816D-02  0.150950D-01  0.187102D-02  0.213680D-02
     39  0.235578D-02 -0.655357D-03  0.144569D-02  0.108215D-02 -0.161592D-02
                6             7             8             9            10 
      6  0.329239D+00
      7  0.211831D-02  0.342742D+00
      8  0.880673D-03  0.249173D-03  0.335013D+00
      9  0.828739D-03  0.768203D-04  0.924771D-04  0.344594D+00
     10 -0.507551D-03  0.741615D-03  0.283478D-02  0.127697D-02  0.347359D+00
     11 -0.625667D-04  0.136784D-03  0.548602D-02  0.828729D-03 -0.507540D-03
     12  0.136725D-03  0.747765D-04  0.455304D-02  0.768154D-04  0.741690D-03
     13 -0.774165D-05 -0.435969D-03  0.250658D-03 -0.368141D-04 -0.105942D-02
     14 -0.457813D-04 -0.107247D-03 -0.437241D-03 -0.104039D-04 -0.411274D-03
     15  0.191832D-03  0.470932D-03  0.446598D-01 -0.763222D-03 -0.182481D-03
     16  0.331292D-02  0.237090D-02 -0.291174D+00  0.285551D-02 -0.155644D-02
     17 -0.100370D-02 -0.224019D-03  0.704215D-02 -0.763185D-03 -0.182425D-03
     18 -0.244953D-02 -0.781496D-02 -0.286718D+00  0.595251D-02 -0.464618D-02
     19  0.142735D-02 -0.887522D-02 -0.116727D-02  0.111130D-02 -0.157303D-02
     20 -0.962399D-02  0.108750D-03  0.114366D-02 -0.100310D-02 -0.185601D-04
     21  0.362458D-02  0.172213D-02  0.361941D-02 -0.107209D-01 -0.434824D-02
     22 -0.162079D-02  0.141551D-02 -0.840550D-02 -0.331961D-02 -0.720395D-02
     23  0.404214D-02 -0.167357D-02 -0.203609D-01 -0.867878D-02 -0.260183D-02
     24  0.573652D-03  0.318712D-03  0.183421D-01 -0.165486D-02  0.362798D-02
     25  0.348883D-03  0.527450D-03  0.204459D-01  0.149985D-02 -0.225065D-02
     26  0.249326D-03 -0.395357D-02 -0.866797D-03 -0.489435D-04 -0.140538D-02
     27 -0.791850D-04 -0.403716D-03  0.246832D-03 -0.137654D-03  0.543629D-03
     28  0.217957D-02 -0.223455D-02  0.274847D-02  0.120837D-02 -0.730138D-02
     29 -0.234084D-03  0.767931D-03 -0.286544D-02 -0.181012D-03 -0.418823D-04
     30 -0.223185D-02  0.145129D-02  0.401750D-01 -0.361171D-03 -0.361968D-02
     31 -0.469228D-02 -0.131542D-01  0.200437D-02 -0.123911D-02  0.307978D-02
     32  0.145708D-01  0.573318D-02 -0.601754D-02 -0.109212D-02  0.232601D-02
     33 -0.308969D-02  0.141820D-03 -0.837951D-02 -0.324904D-02  0.150275D-02
     34 -0.105365D-02 -0.338781D-03  0.159010D-01 -0.526532D-02 -0.114227D-01
     35 -0.108729D-03 -0.719864D-03 -0.280968D-01  0.127698D-01  0.382781D-02
     36  0.447984D-04  0.109340D-03 -0.100301D-01  0.796680D-03  0.937817D-03
     37 -0.295491D-03 -0.643848D-04 -0.242604D-01  0.355134D-03  0.103091D-02
     38  0.111405D-02 -0.135034D-02 -0.520295D-03  0.110510D-02 -0.703835D-02
     39  0.188779D-03 -0.108528D-03 -0.163723D-05 -0.402328D-04  0.159001D-03
               11            12            13            14            15 
     11  0.329238D+00
     12  0.211873D-02  0.342744D+00
     13  0.226904D-04 -0.833669D-03  0.137525D-01
     14 -0.458029D-04 -0.107133D-03 -0.401231D-02  0.526048D+00
     15 -0.100326D-02 -0.224330D-03  0.760856D-03 -0.493514D-03  0.211629D+00
     16  0.126777D-01  0.238785D-02 -0.199211D-02 -0.205196D-02 -0.174181D+00
     17  0.192301D-03  0.470431D-03  0.448917D-03 -0.493679D-03 -0.467520D-02
     18  0.254319D-01  0.228694D-01 -0.471017D-02 -0.410199D-02 -0.138561D+00
     19  0.101400D-03  0.412455D-04 -0.599645D-03 -0.642591D-03  0.178154D-02
     20  0.135172D-03 -0.168406D-03 -0.142856D-02 -0.494085D-03  0.424589D-02
     21  0.217203D-01  0.305313D-01 -0.708881D-02 -0.272388D-02  0.117002D-01
     22 -0.190826D-03 -0.102079D-02 -0.489808D-03 -0.292975D-03  0.280476D-02
     23 -0.156859D-02  0.138468D-02  0.507461D-03 -0.741844D-03  0.409622D-03
     24 -0.513091D-02 -0.912905D-02 -0.752162D-03  0.391937D-03 -0.151535D-02
     25 -0.993341D-02 -0.561505D-02  0.745186D-03  0.140844D-03 -0.196154D-02
     26 -0.229106D-03  0.226718D-02  0.169555D-01 -0.532828D-02 -0.164445D-02
     27  0.344336D-04 -0.398289D-03  0.884187D-02 -0.605980D-02  0.118111D-02
     28  0.143599D-02 -0.202944D-02  0.129236D-01 -0.273464D-02  0.233344D-02
     29 -0.976963D-03  0.972201D-03 -0.143351D-02  0.125550D-03 -0.680654D-03
     30  0.170504D-01 -0.138112D-01  0.142324D-01 -0.220818D-02  0.139752D-01
     31  0.634435D-03  0.346019D-03 -0.413836D-03  0.133490D-03 -0.111486D-03
     32 -0.420219D-03 -0.467360D-03 -0.125348D-03  0.780695D-04  0.107767D-03
     33  0.295567D-01 -0.123433D-01  0.583760D-02 -0.183019D-02 -0.165067D-01
     34 -0.181860D-02  0.964899D-03 -0.739065D-03 -0.464548D-03 -0.477115D-02
     35 -0.353044D-02  0.114525D-02 -0.537016D-03  0.109107D-02  0.952869D-03
[...]
 !       D11        97.3131   -DE/DX =    0.0                           !
 !       D12       120.7218   -DE/DX =    0.0                           !
 !       D13       266.9045   -DE/DX =    0.0                           !
 !       D14        90.0449   -DE/DX =    0.0                           !
 ------------------------------------------------------------------------
 GradGradGradGradGradGradGradGradGradGradGradGradGradGradGradGradGradGrad

 Leave Link  103 at Fri Aug 29 13:23:59 2025, MaxMem=   268435456 cpu:               0.1 elap:               0.0
 (Enter /apps/eb/gaussian/16-AVX2/g16/l9999.exe)

 ----------------------------------------------------------------------

 Electric dipole moment (input orientation):
 (Debye = 10**-18 statcoulomb cm , SI units = C m)
                  (au)            (Debye)         (10**-30 SI)
   Tot        0.651889D+00      0.165694D+01      0.552695D+01
   x          0.449521D+00      0.114257D+01      0.381119D+01
   y         -0.472113D+00     -0.119999D+01     -0.400274D+01
   z         -0.120641D-03     -0.306640D-03     -0.102284D-02

 Dipole polarizability, Alpha (input orientation).
 (esu units = cm**3 , SI units = C**2 m**2 J**-1)
 Alpha(0;0):
               (au)            (10**-24 esu)      (10**-40 SI)
   iso        0.627350D+02      0.929637D+01      0.103436D+02
   aniso      0.140178D+02      0.207722D+01      0.231122D+01
   xx         0.570801D+02      0.845839D+01      0.941123D+01
   yx         0.581274D+01      0.861359D+00      0.958391D+00
   yy         0.683424D+02      0.101273D+02      0.112681D+02
   zx        -0.566189D-04     -0.839005D-05     -0.933519D-05
   zy         0.203201D-02      0.301112D-03      0.335032D-03
   zz         0.627825D+02      0.930341D+01      0.103514D+02

 ----------------------------------------------------------------------

 Dipole orientation:
     6         -0.00000000         -0.00000000         -0.00000000
     6         -1.75786957          1.84621821         -0.00047177
     1          1.70263192         -0.01180251          1.16654682
     6         -3.95871876          1.19688624         -1.67429924
     1         -1.68617753          3.54807722          1.16505918
     6         -2.97472088         -1.07320694         -3.21685857
     1         -5.61280984          0.69805790         -0.49945927
     1         -4.53151441          2.79445553         -2.87490392
     6         -0.75594713         -2.16683470         -1.67345794
     1         -4.45052006         -2.47849253         -3.61824341
     1         -2.24398218         -0.37788233         -5.03096222
     1         -1.33547156         -3.79424055         -0.49838449
     1          0.81194748         -2.81748975         -2.87351152
     8          1.17811476          2.88138646         -3.32556258
     1          2.18969017          3.84433816         -2.13777479

 Electric dipole moment (dipole orientation):
 (Debye = 10**-18 statcoulomb cm , SI units = C m)
                  (au)            (Debye)         (10**-30 SI)
   Tot        0.651889D+00      0.165694D+01      0.552695D+01
   x          0.000000D+00      0.000000D+00      0.000000D+00
   y          0.000000D+00      0.000000D+00      0.000000D+00
   z          0.651889D+00      0.165694D+01      0.552695D+01

 Dipole polarizability, Alpha (dipole orientation).
 (esu units = cm**3 , SI units = C**2 m**2 J**-1)
 Alpha(0;0):
               (au)            (10**-24 esu)      (10**-40 SI)
   iso        0.627350D+02      0.929637D+01      0.103436D+02
   aniso      0.140178D+02      0.207722D+01      0.231122D+01
   xx         0.656453D+02      0.972763D+01      0.108234D+02
   yx         0.272600D+01      0.403952D+00      0.449457D+00
   yy         0.653784D+02      0.968807D+01      0.107794D+02
   zx        -0.427783D+01     -0.633908D+00     -0.705318D+00
   zy        -0.407663D+01     -0.604095D+00     -0.672146D+00
   zz         0.571814D+02      0.847341D+01      0.942794D+01

 ----------------------------------------------------------------------
 Unable to Open any file for archive entry.
 1\1\GINC-A1-8\Freq\UwB97XD\def2SVP\C5H9O1(2)\AVCOPAN\29-Aug-2025\1\\#P
  Geom=AllCheck Guess=TCheck SCRF=Check GenChk UwB97XD/def2SVP Freq\\co
 mment:\\0,2\C\C,1,R1\H,1,R2,2,A2\C,2,R3,1,A3,3,D3,0\H,2,R4,1,A4,4,D4,0
 \C,4,R5,2,A5,1,D5,0\H,4,R6,2,A6,6,D6,0\H,4,R7,2,A7,6,D7,0\C,6,R8,4,A8,
 2,D8,0\H,6,R9,4,A9,9,D9,0\H,6,R10,4,A10,9,D10,0\H,9,R11,6,A11,4,D11,0\
 H,9,R12,6,A12,12,D12,0\O,1,R13,2,A13,3,D13,0\H,14,R14,1,A14,2,D14,0\\R
 1=1.349\R2=1.0922\R3=1.503\R4=1.0922\R5=1.5429\R6=1.1056\R7=1.1001\R8=
 1.5429\R9=1.0991\R10=1.0984\R11=1.1056\R12=1.1001\R13=2.4105\R14=0.970
 2\A2=124.9662\A3=111.6458\A4=124.9673\A5=103.1955\A6=109.6741\A7=112.2
 199\A8=105.5931\A9=112.9066\A10=108.6862\A11=112.2598\A12=112.6909\A13
 =73.7458\A14=90.112\D3=184.2529\D4=175.7734\D5=346.7072\D6=119.8032\D7
 =238.4131\D8=20.6981\D9=123.8225\D10=243.543\D11=97.3131\D12=120.7218\
 D13=266.9045\D14=90.0449\\Version=ES64L-G16RevC.01\State=2-A\HF=-270.7
 809334\S2=0.753693\S2-1=0.\S2A=0.75001\RMSD=9.302e-10\RMSF=1.595e-05\Z
 eroPoint=0.1287512\Thermal=0.1353027\ETot=-270.6456307\HTot=-270.64468
 65\GTot=-270.6828231\Dipole=0.4495206,-0.472113,-0.0001206\DipoleDeriv
 =0.130851,0.1336984,0.0997823,-0.0177834,-0.356038,0.0211628,0.1454859
 ,0.5909622,0.0500802,0.1308552,0.133786,-0.0997695,-0.0177056,-0.35620
 26,-0.0209846,-0.1454901,-0.5909607,0.0501038,-0.0661188,0.0047138,0.0
 657677,-0.0115614,0.1239579,-0.0094781,0.0493594,-0.0231394,0.0332216,
 -0.0347628,-0.0205828,0.0251968,-0.0149347,0.1614387,0.0319223,0.00858
 31,0.0691446,-0.0114183,-0.066107,0.0047115,-0.0657585,-0.0116298,0.12
 39555,0.0093556,-0.049353,0.0231348,0.0332223,0.0790076,0.069042,-0.00
 00028,0.0411823,0.0681923,-0.0000117,-0.0000062,0.0000049,0.0013263,0.
 0072909,-0.0429439,0.0612118,-0.024597,-0.0967372,0.1147253,-0.0018594
 ,0.0629034,0.0040794,0.0296252,-0.0320194,0.0376186,0.0363882,0.019836
 ,-0.1133226,0.0131423,-0.0434799,-0.0593906,-0.0347569,-0.0205619,-0.0
 251933,-0.0149323,0.1613537,-0.0319584,-0.0085838,-0.0691633,-0.011448
 1,-0.1218337,-0.0713018,-0.0000021,-0.1150427,0.027877,0.0000016,-0.00
 00018,-0.000002,0.0344593,0.0472372,0.000933,0.000001,0.0735688,-0.062
 6003,0.,-0.0000019,-0.0000032,0.0239277,0.0072831,-0.0429638,-0.061225
 7,-0.024609,-0.0967395,-0.11474,0.0018564,-0.0629158,0.0040728,0.02962
 55,-0.0320039,-0.037626,0.0363829,0.0198267,0.1133213,-0.0131365,0.043
 4918,-0.0593874,-0.2303295,-0.2050151,-0.0000437,0.0410743,-0.00938,0.
 000005,-0.0000296,0.0000438,-0.3494419,0.0921331,0.1205078,0.0000433,0
 .0241994,0.2712597,0.0000013,0.0000353,-0.0000212,0.2565929\Polar=57.0
 800708,5.8127395,68.3423929,-0.0000566,0.002032,62.7825461\Quadrupole=
 2.5192705,-2.5457079,0.0264374,1.5439449,-0.0002614,-0.0002792\PG=C01 
 [X(C5H9O1)]\NImag=1\\0.62096742,0.01740950,0.13319024,-0.10288216,0.01
 126546,0.82334827,-0.10474547,-0.00035970,0.00119496,0.62098562,-0.000
 36614,-0.04022657,0.01465108,0.01750465,0.13318834,-0.00119005,-0.0146
 6127,-0.52276563,0.10288152,-0.01118010,0.82336444,-0.25474648,-0.0014
 3198,0.13889240,0.00548498,-0.00002038,-0.00560514,0.26107976,-0.00090
 418,-0.03698684,-0.00118157,-0.00125313,0.00467798,0.00049881,0.001737
 91,0.02513605,0.13415840,-0.00117570,-0.15224320,0.02705582,0.00015454
 ,-0.00736997,-0.14841357,0.00070969,0.15387648,-0.00833386,-0.00401562
 ,0.02003510,-0.20493348,-0.00826681,0.05414774,-0.00030141,-0.00023384
 ,-0.00092480,0.44953233,0.00013246,0.00774850,0.00111074,-0.00767429,-
 0.07041449,0.00136609,0.00011995,0.00996606,-0.00073641,-0.00183486,0.
 57373775,0.02965167,0.00555873,-0.02489090,0.04101876,0.00285994,-0.10
 024145,-0.00140280,0.00041584,-0.00430541,-0.05031259,0.02379029,0.575
 09485,0.00548619,-0.00002330,0.00560509,-0.25474455,-0.00151410,-0.138
 89621,0.00032333,0.00012942,-0.00058471,-0.00924245,0.00137188,-0.0168
 7351,0.26107613,-0.00125088,0.00467566,-0.00048820,-0.00100119,-0.0369
 8357,0.00110014,0.00012735,-0.00504635,0.00014870,-0.00091812,0.001996
 76,-0.00203389,0.00183006,0.02513847,-0.02705443,-0.00016057,-0.007369
 08,-0.13416360,0.00111401,-0.15225162,0.00058454,-0.00014666,0.0009747
 5,0.01016924,-0.00094839,0.01036101,0.14841701,-0.00064404,0.15388398,
 -0.03470220,0.00490707,0.01967067,-0.03471696,0.00490519,-0.01967124,-
 0.00336364,-0.00015615,-0.00329365,-0.10990601,0.01360328,-0.04759850,
 -0.00336386,-0.00015531,0.00329361,0.59117635,-0.00355303,0.00077564,0
 .00252798,-0.00355640,0.00077459,-0.00252847,-0.00147828,0.00169042,-0
 .00049050,0.01471530,-0.08626956,0.01841940,-0.00147912,0.00168979,0.0
 0049024,0.03039746,0.60778340,0.01141559,0.00259223,0.00348285,-0.0114
 3270,-0.00259458,0.00347193,-0.00162579,-0.00018707,-0.00158979,-0.053
 56701,0.01517094,-0.14382701,0.00162559,0.00018696,-0.00158976,0.00001
 838,0.00000628,0.41390852,-0.00340670,-0.00005737,0.00040368,-0.003680
 21,-0.02865282,0.01287584,0.00012344,0.00203459,0.00041126,-0.05077683
 ,-0.03829274,0.01408625,0.00008178,0.00085690,-0.00063799,0.00132790,0
 .01930135,-0.00612727,0.05597495,-0.00069048,0.00052907,-0.00144099,-0
 .00136232,0.00081984,0.00117766,-0.00008475,-0.00010043,0.00004531,-0.
 03392431,-0.26684472,0.08438746,-0.00053275,0.00000675,0.00033978,0.00
 025916,-0.00254746,-0.00044062,0.03919125,0.28500870,0.00149029,0.0002
 8170,0.00001469,0.00394948,0.00956681,-0.00618798,0.00012777,-0.000994
 81,-0.00023206,0.01156305,0.08563471,-0.07956348,0.00018103,-0.0000168
 2,0.00001192,0.00348145,0.02100892,-0.00559600,-0.01502519,-0.09476765
 ,0.08527263,-0.00511764,-0.00071064,0.00215441,-0.00169830,0.02059467,
 0.02290943,0.00027104,-0.00170220,0.00099574,-0.05411131,0.02893123,0.
 03081356,0.00053016,-0.00049174,-0.00073607,0.00412885,-0.01224146,-0.
 01461969,0.00101122,-0.00367969,-0.00427548,0.05638395,0.00000117,0.00
 000373,0.00042733,-0.00128353,0.00330017,0.00447352,-0.00009314,-0.000
 20221,0.00027117,0.02991915,-0.16483078,-0.13679134,0.00027474,0.00014
 130,-0.00026911,-0.00168256,0.00460508,0.00738439,0.00509700,-0.018248
 49,-0.02106659,-0.03250376,0.17351719,0.00075802,-0.00057503,-0.000710
 75,0.00189877,-0.00405058,-0.00703817,0.00014899,0.00058267,-0.0004031
 2,0.03014315,-0.13367661,-0.19342522,0.00027593,0.00038139,0.00017930,
 0.00521537,-0.01183881,-0.01415011,-0.00227807,0.00818529,0.00892337,-
 0.03413019,0.14219562,0.20983576,-0.20493129,-0.00825953,-0.05414561,-
 0.00833369,-0.00401626,-0.02003583,-0.00924293,-0.00092051,-0.01016916
 ,0.00661239,-0.00430253,-0.00406046,-0.00030128,-0.00023243,0.00092496
 ,-0.10991523,0.01471172,0.05356617,-0.00029016,0.00043362,0.00001569,-
 0.00289793,0.00058320,-0.00203736,0.44953951,-0.00767294,-0.07041684,-
 0.00136875,0.00013563,0.00774829,-0.00111467,0.00137606,0.00199652,0.0
 0095011,-0.00430440,-0.00321731,0.00540066,0.00011642,0.00996604,0.000
 73455,0.01360150,-0.08627079,-0.01517277,-0.00040887,-0.00014406,0.001
 17692,0.00124113,0.00038097,-0.00021057,-0.00183411,0.57373472,-0.0410
 0712,-0.00286002,-0.10024402,-0.02964653,-0.00556106,-0.02488827,0.016
 87435,0.00203343,0.01036065,0.00406263,-0.00539844,-0.03322682,0.00140
 305,-0.00041607,-0.00430520,0.04758231,-0.01842376,-0.14383275,-0.0002
 2761,0.00080517,-0.00066480,-0.00169197,0.00220240,-0.00254810,0.05030
 881,-0.02378157,0.57509980,-0.00199949,0.00010382,0.00221327,-0.001999
 57,0.00010340,-0.00221309,-0.00069252,0.00007362,-0.00036538,-0.010212
 32,-0.00768758,0.00224105,-0.00069255,0.00007354,0.00036538,-0.2393932
 2,-0.12619183,-0.00000116,0.00085922,0.00024694,0.00031867,-0.00070783
 ,0.00015341,-0.00050616,-0.01021221,-0.00768787,-0.00224109,0.25653156
 ,0.00185266,0.00014281,-0.00127053,0.00185282,0.00014307,0.00127044,0.
 00045423,0.00008342,0.00017758,0.00814199,0.00335072,0.00064595,0.0004
 5420,0.00008350,-0.00017763,-0.12958836,-0.13253595,-0.00000027,0.0001
 8838,0.00113795,-0.00028719,-0.00003715,0.00008571,0.00007659,0.008141
 84,0.00335083,-0.00064608,0.13529710,0.13684141,0.00204922,-0.00022525
 ,-0.00414457,-0.00204956,0.00022463,-0.00414510,0.00099251,-0.00014633
 ,0.00073689,-0.02055058,-0.01393912,0.00173452,-0.00099259,0.00014646,
 0.00073687,-0.00000049,-0.00000044,-0.04714773,0.00059713,0.00002264,0
 .00135806,-0.00070512,-0.00010719,-0.00096569,0.02055055,0.01393944,0.
 00173458,0.00000097,0.00000062,0.05005328,0.00031893,-0.00006379,0.001
 86682,0.00031919,-0.00006404,-0.00186702,-0.00018902,-0.00024366,-0.00
 006693,-0.00386937,0.01697543,-0.00020563,-0.00018892,-0.00024357,0.00
 006697,-0.06515414,0.06248269,0.00000030,-0.00174408,0.00056458,-0.001
 81488,0.00112447,-0.00006507,0.00021331,-0.00386896,0.01697496,0.00020
 595,0.00811303,-0.02609562,-0.00000015,0.06568857,0.00007345,0.0001632
 8,-0.00031367,0.00007338,0.00016365,0.00031377,0.00009358,-0.00008861,
 -0.00000557,-0.00024860,-0.00362628,0.00033833,0.00009360,-0.00008860,
 0.00000560,0.06608436,-0.31236311,-0.00000180,0.00088628,0.00092946,0.
 00057459,-0.00021261,0.00133547,-0.00019592,-0.00024895,-0.00362582,-0
 .00033832,0.00481562,-0.01348536,-0.00000005,-0.07063687,0.32966351,-0
 .00057156,-0.00047094,-0.00123107,0.00057187,0.00047076,-0.00123138,0.
 00017057,0.00032171,0.00013392,-0.00773385,0.02616029,-0.00313606,-0.0
 0017044,-0.00032154,0.00013396,0.00000012,-0.00000189,-0.04297333,-0.0
 0402155,0.00115500,-0.00305465,0.00049903,0.00071176,0.00066381,0.0077
 3349,-0.02616019,-0.00313613,0.,-0.00000003,-0.00037832,0.,0.00000208,
 0.05680545,-0.00367955,-0.02865219,-0.01287652,-0.00340658,-0.00005702
 ,-0.00040402,0.00008225,0.00085697,0.00063786,-0.00028985,-0.00040901,
 0.00022792,0.00012272,0.00203424,-0.00041161,0.00132801,0.01930078,0.0
 0612735,0.00012815,-0.00010543,-0.00001855,0.00052012,-0.00017629,0.00
 028983,-0.05077906,-0.03829636,-0.01408821,0.00085919,0.00018836,-0.00
 059705,-0.00174410,0.00088629,0.00402152,0.05597576,-0.00136174,0.0008
 2098,-0.00117696,-0.00069065,0.00052872,0.00144094,-0.00053258,0.00000
 704,-0.00033971,0.00043356,-0.00014404,-0.00080507,-0.00008469,-0.0001
 0028,-0.00004536,0.00025930,-0.00254684,0.00044088,-0.00010542,-0.0002
 7866,-0.00027146,-0.00002464,-0.00005352,-0.00004709,-0.03392822,-0.26
 683492,-0.08439475,0.00024698,0.00113785,-0.00002272,0.00056453,0.0009
 2945,-0.00115489,0.03919469,0.28499863,-0.00394949,-0.00956665,-0.0061
 8897,-0.00148992,-0.00028181,0.00001500,-0.00018105,0.00001720,0.00001
 213,-0.00001604,-0.00117696,-0.00066467,-0.00012807,0.00099482,-0.0002
 3232,-0.00348255,-0.02100833,-0.00559586,0.00001849,0.00027147,-0.0000
 6748,-0.00010578,0.00042352,-0.00067406,-0.01156464,-0.08564190,-0.079
 56997,-0.00031860,0.00028718,0.00135792,0.00181483,-0.00057453,-0.0030
 5457,0.01502815,0.09477461,0.08527965,-0.00169886,0.02059603,-0.022909
 48,-0.00511775,-0.00071025,-0.00215385,0.00052998,-0.00049184,0.000736
 40,-0.00289806,0.00124126,0.00169167,0.00027172,-0.00170268,-0.0009953
 7,0.00412836,-0.01224196,0.01462021,0.00052017,-0.00002470,0.00010577,
 0.00041642,-0.00014271,0.00039948,-0.05410995,0.02893169,-0.03081323,-
 0.00070780,-0.00003716,0.00070516,0.00112455,-0.00021262,-0.00049898,0
 .00101148,-0.00368024,0.00427570,0.05638299,-0.00128281,0.00330072,-0.
 00447293,0.00000118,0.00000310,-0.00042719,0.00027492,0.00014125,0.000
 26914,0.00058332,0.00038129,-0.00220230,-0.00009307,-0.00020221,-0.000
 27114,-0.00168274,0.00460489,-0.00738445,-0.00017627,-0.00005352,-0.00
 042359,-0.00014265,0.00005226,-0.00019669,0.02991810,-0.16483858,0.136
 79368,0.00015339,0.00008570,0.00010724,-0.00006500,0.00133558,-0.00071
 186,0.00509664,-0.01825003,0.02106592,-0.03250351,0.17352645,-0.001899
 20,0.00405071,-0.00703848,-0.00075770,0.00057452,-0.00071009,-0.000276
 23,-0.00038101,0.00017917,0.00203791,0.00021074,-0.00254803,-0.0001488
 2,-0.00058250,-0.00040287,-0.00521551,0.01183924,-0.01415124,-0.000289
 82,0.00004706,-0.00067404,-0.00039952,0.00019675,-0.00053404,-0.030141
 11,0.13367961,-0.19341817,0.00050613,-0.00007657,-0.00096576,-0.000213
 23,0.00019594,0.00066381,0.00227800,-0.00818609,0.00892350,0.03412828,
 -0.14219824,0.20982916,-0.00353416,-0.00104791,0.00413987,-0.00353711,
 -0.00104729,-0.00414033,0.00045195,0.00099347,-0.00035924,-0.00131528,
 -0.00278760,0.00140932,0.00045223,0.00099433,0.00035934,-0.00108484,-0
 .00056002,0.00000007,-0.00044859,-0.00027731,-0.00007023,-0.00008163,-
 0.00013394,-0.00026814,-0.00131447,-0.00278574,-0.00140798,0.00010008,
 -0.00058163,0.,-0.00066971,-0.00119637,-0.00000029,-0.00044822,-0.0002
 7709,0.00007018,-0.00008148,-0.00013369,0.00026805,0.53855176,0.000632
 93,-0.00227479,-0.01894377,0.00063414,-0.00227963,0.01894505,-0.000701
 87,-0.00118716,0.00052576,0.00059232,-0.00096462,-0.00061793,-0.000702
 09,-0.00118953,-0.00052585,-0.00105080,0.00081715,-0.00000025,0.000197
 71,-0.00018800,-0.00028621,0.00099944,0.00015108,-0.00051902,0.0005926
 7,-0.00096044,0.00061855,0.00020508,-0.00041989,0.00000008,-0.00015006
 ,-0.00155438,-0.00000029,0.00019810,-0.00018801,0.00028614,0.00099854,
 0.00015087,0.00051875,0.02737423,0.02045612,0.00085710,0.00670363,-0.0
 0015854,-0.00085762,-0.00670334,-0.00015943,-0.00071219,-0.00093211,0.
 00012203,0.00076454,0.00210110,-0.00091483,0.00071240,0.00093435,0.000
 12194,0.00000044,0.00000009,-0.00011884,0.00000086,0.00012849,0.000466
 99,-0.00089934,-0.00001515,0.00078069,-0.00076380,-0.00209992,-0.00091
 464,0.,0.00000006,0.00005491,-0.00000034,-0.00000028,0.00003427,-0.000
 00067,-0.00012852,0.00046693,0.00089954,0.00001544,0.00078112,-0.00010
 782,-0.00000778,-0.00048423,0.00012316,0.00160561,-0.00336250,0.000123
 87,0.00160720,0.00336225,0.00018927,0.00007952,0.00018196,0.00004552,0
 .00061312,-0.00068669,0.00018934,0.00007949,-0.00018200,-0.00048936,0.
 00039278,-0.00000005,0.00031976,-0.00001380,-0.00002887,0.00022841,0.0
 0005232,-0.00012295,0.00004526,0.00061289,0.00068664,0.00015442,-0.000
 23164,0.,0.00073956,-0.00025053,0.00000007,0.00031968,-0.00001380,0.00
 002879,0.00022821,0.00005220,0.00012275,-0.52704051,-0.02982034,0.0001
 0688,0.52482343,-0.00301999,-0.00144558,0.00067478,-0.00302059,-0.0014
 4351,-0.00067470,0.00015898,-0.00008715,-0.00050410,-0.00063910,-0.000
 86930,0.00063392,0.00015881,-0.00008773,0.00050458,0.00029861,-0.00020
 725,0.00000013,-0.00005997,-0.00002647,-0.00012935,-0.00001992,-0.0002
 3799,-0.00011124,-0.00063860,-0.00086863,-0.00063315,0.00009437,-0.000
 00177,-0.00000002,0.00006548,0.00031175,0.00000005,-0.00005978,-0.0000
 2637,0.00012932,-0.00001985,-0.00023777,0.00011109,-0.01853343,-0.0103
 6879,0.00000392,0.02523498,0.01559656,-0.00182630,-0.00075705,0.000139
 42,0.00182644,0.00075517,0.00013772,0.00042565,-0.00060978,-0.00025247
 ,0.00018151,0.00033102,-0.00044651,-0.00042577,0.00061025,-0.00025288,
 -0.00000040,0.00000006,-0.00029089,0.00021399,0.00008391,-0.00000714,0
 .00019096,-0.00003709,0.00006632,-0.00018170,-0.00033095,-0.00044616,0
 .,-0.00000011,-0.00001988,0.,-0.00000018,-0.00023970,-0.00021401,-0.00
 008378,-0.00000723,-0.00019128,0.00003696,0.00006598,0.00010719,0.0000
 0678,-0.00007837,-0.00010629,-0.00000523,0.00163179\\-0.00000437,0.000
 03081,-0.00005196,-0.00000262,-0.00000700,0.00005108,0.00000596,-0.000
 02418,-0.00000492,0.00000758,-0.00002153,0.00001800,0.00000666,-0.0000
 0012,0.00000624,-0.00002730,0.00002637,0.00000024,0.00000295,0.0000151
 6,-0.00000599,-0.00000022,0.00000264,0.00000557,0.00000729,-0.00001883
 ,-0.00001915,-0.00000348,-0.00000091,0.00000007,0.00000524,-0.00002300
 ,-0.00000009,0.00000251,0.00001574,0.00000520,-0.00000083,0.00000172,-
 0.00000519,0.00000794,0.00000394,0.00000046,-0.00000733,-0.00000080,0.
 00000044\\\@
 The archive entry for this job was punched.


 BOOKS ARE LIGHTHOUSES ERECTED IN THE GREAT SEA OF TIME.
     -- E.P.WHIPPLE
 Job cpu time:       0 days  0 hours  6 minutes  3.6 seconds.
 Elapsed time:       0 days  0 hours  0 minutes 46.1 seconds.
 File lengths (MBytes):  RWF=     59 Int=      0 D2E=      0 Chk=      3 Scr=      1
 Normal termination of Gaussian 16 at Fri Aug 29 13:23:59 2025.
