 Entering Gaussian System, Link 0=g16
 Input=run.inp
 Output=run.out
 Initial command:
 /gpfs/fs1/soft/bebop/software/custom-built/gaussian/16-c.02/g16/l1.exe "/scratch/Gau-613308.inp" -scrdir="/scratch/"
 Default CPUs for threads: 0-35
 Default is to use a total of  36 processors:
                               36 via shared-memory
                                1 via Linda
 Entering Link 1 = /gpfs/fs1/soft/bebop/software/custom-built/gaussian/16-c.02/g16/l1.exe PID=    613309.
  
 Copyright (c) 1988-2019, Gaussian, Inc.  All Rights Reserved.
  
 This is part of the Gaussian(R) 16 program.  It is based on
 the Gaussian(R) 09 system (copyright 2009, Gaussian, Inc.),
 the Gaussian(R) 03 system (copyright 2003, Gaussian, Inc.),
 the Gaussian(R) 98 system (copyright 1998, Gaussian, Inc.),
 the Gaussian(R) 94 system (copyright 1995, Gaussian, Inc.),
 the Gaussian 92(TM) system (copyright 1992, Gaussian, Inc.),
 the Gaussian 90(TM) system (copyright 1990, Gaussian, Inc.),
 the Gaussian 88(TM) system (copyright 1988, Gaussian, Inc.),
 the Gaussian 86(TM) system (copyright 1986, Carnegie Mellon
 University), and the Gaussian 82(TM) system (copyright 1983,
 Carnegie Mellon University). Gaussian is a federally registered
 trademark of Gaussian, Inc.
  
 This software contains proprietary and confidential information,
 including trade secrets, belonging to Gaussian, Inc.
  
 This software is provided under written license and may be
 used, copied, transmitted, or stored only in accord with that
 written license.
  
 The following legend is applicable only to US Government
 contracts under FAR:
  
                    RESTRICTED RIGHTS LEGEND
  
 Use, reproduction and disclosure by the US Government is
 subject to restrictions as set forth in subparagraphs (a)
 and (c) of the Commercial Computer Software - Restricted
 Rights clause in FAR 52.227-19.
  
 Gaussian, Inc.
 340 Quinnipiac St., Bldg. 40, Wallingford CT 06492
  
  
 ---------------------------------------------------------------
 Warning -- This program may not be used in any manner that
 competes with the business of Gaussian, Inc. or will provide
 assistance to any competitor of Gaussian, Inc.  The licensee
 of this program is prohibited from giving any competitor of
 Gaussian, Inc. access to this program.  By using this program,
 the user acknowledges that Gaussian, Inc. is engaged in the
 business of creating and licensing software in the field of
 computational chemistry and represents and warrants to the
 licensee that it is not a competitor of Gaussian, Inc. and that
 it will not use this program in any manner prohibited above.
 ---------------------------------------------------------------
  

 Cite this work as:
 Gaussian 16, Revision C.01,
 M. J. Frisch, G. W. Trucks, H. B. Schlegel, G. E. Scuseria, 
 M. A. Robb, J. R. Cheeseman, G. Scalmani, V. Barone, 
 G. A. Petersson, H. Nakatsuji, X. Li, M. Caricato, A. V. Marenich, 
 J. Bloino, B. G. Janesko, R. Gomperts, B. Mennucci, H. P. Hratchian, 
 J. V. Ortiz, A. F. Izmaylov, J. L. Sonnenberg, D. Williams-Young, 
 F. Ding, F. Lipparini, F. Egidi, J. Goings, B. Peng, A. Petrone, 
 T. Henderson, D. Ranasinghe, V. G. Zakrzewski, J. Gao, N. Rega, 
 G. Zheng, W. Liang, M. Hada, M. Ehara, K. Toyota, R. Fukuda, 
 J. Hasegawa, M. Ishida, T. Nakajima, Y. Honda, O. Kitao, H. Nakai, 
 T. Vreven, K. Throssell, J. A. Montgomery, Jr., J. E. Peralta, 
 F. Ogliaro, M. J. Bearpark, J. J. Heyd, E. N. Brothers, K. N. Kudin, 
 V. N. Staroverov, T. A. Keith, R. Kobayashi, J. Normand, 
 K. Raghavachari, A. P. Rendell, J. C. Burant, S. S. Iyengar, 
 J. Tomasi, M. Cossi, J. M. Millam, M. Klene, C. Adamo, R. Cammi, 
 J. W. Ochterski, R. L. Martin, K. Morokuma, O. Farkas, 
 J. B. Foresman, and D. J. Fox, Gaussian, Inc., Wallingford CT, 2019.
 
 ******************************************
 Gaussian 16:  ES64L-G16RevC.01  3-Jul-2019
                14-May-2025 
 ******************************************
 %mem=28GB
 %NProcShared=6
 Will use up to    6 processors via shared memory.
 ---------------------------------------------------------------------
 #P wb97xd/def2svp # SCF=(xqc) # Freq=() # IOp(7/33=1) # int=ultrafine
 ---------------------------------------------------------------------
 1/10=4,30=1,38=1/1,3;
 2/12=2,17=6,18=5,40=1/2;
 3/5=43,7=101,11=2,25=1,30=1,71=2,74=-58,75=-5,140=1/1,2,3;
 4//1;
 5/5=2,8=3,13=1,38=5,98=1/2,8;
 8/6=4,10=90,11=11/1;
 11/6=1,8=1,9=11,15=111,16=1/1,2,10;
 10/6=1/2;
 6/7=2,8=2,9=2,10=2,28=1/1;
 7/8=1,10=1,25=1,33=1/1,2,3,16;
 1/10=4,30=1/3;
 99//99;
 Leave Link    1 at Wed May 14 13:33:17 2025, MaxMem=  3758096384 cpu:               0.9 elap:               0.1
 (Enter /gpfs/fs1/soft/bebop/software/custom-built/gaussian/16-c.02/g16/l101.exe)
 --------
 comment:
 --------
 Symbolic Z-matrix:
 Charge =  0 Multiplicity = 2
 C                     0.        0.        0. 
 C                     0.        0.        1.5033 
 H                     0.        0.95392  -0.53413 
 C                    -0.96732  -1.1185    1.96608 
 H                    -0.35045   0.98152   1.85702 
 H                     1.00223  -0.1447    1.94207 
 C                    -1.99481  -1.37648   0.89622 
 H                    -0.42374  -2.0578    2.15462 
 H                    -1.46383  -0.84572   2.91184 
 C                    -0.41418  -1.1436   -0.63485 
 O                    -2.83673  -0.35935   0.58324 
 H                    -2.43226  -2.38478   0.81837 
 H                    -0.68201  -1.12398  -1.69573 
 H                    -0.15235  -2.13473  -0.25114 
 O                    -3.79652  -0.20305   1.68523 
 H                    -4.60573  -0.48366   1.23644 
 
 ITRead=  0  0  0  0  0  0  0  0  0  0  0  0  0  0  0  0
 MicOpt= -1 -1 -1 -1 -1 -1 -1 -1 -1 -1 -1 -1 -1 -1 -1 -1
 NAtoms=     16 NQM=       16 NQMF=       0 NMMI=      0 NMMIF=      0
                NMic=       0 NMicF=      0.
                    Isotopes and Nuclear Properties:
 (Nuclear quadrupole moments (NQMom) in fm**2, nuclear magnetic moments (NMagM)
  in nuclear magnetons)

  Atom         1           2           3           4           5           6           7           8           9          10
 IAtWgt=          12          12           1          12           1           1          12           1           1          12
 AtmWgt=  12.0000000  12.0000000   1.0078250  12.0000000   1.0078250   1.0078250  12.0000000   1.0078250   1.0078250  12.0000000
 NucSpn=           0           0           1           0           1           1           0           1           1           0
 AtZEff=  -0.0000000  -0.0000000  -0.0000000  -0.0000000  -0.0000000  -0.0000000  -0.0000000  -0.0000000  -0.0000000  -0.0000000
 NQMom=    0.0000000   0.0000000   0.0000000   0.0000000   0.0000000   0.0000000   0.0000000   0.0000000   0.0000000   0.0000000
 NMagM=    0.0000000   0.0000000   2.7928460   0.0000000   2.7928460   2.7928460   0.0000000   2.7928460   2.7928460   0.0000000
 AtZNuc=   6.0000000   6.0000000   1.0000000   6.0000000   1.0000000   1.0000000   6.0000000   1.0000000   1.0000000   6.0000000

  Atom        11          12          13          14          15          16
 IAtWgt=          16           1           1           1          16           1
 AtmWgt=  15.9949146   1.0078250   1.0078250   1.0078250  15.9949146   1.0078250
 NucSpn=           0           1           1           1           0           1
 AtZEff=  -0.0000000  -0.0000000  -0.0000000  -0.0000000  -0.0000000  -0.0000000
 NQMom=    0.0000000   0.0000000   0.0000000   0.0000000   0.0000000   0.0000000
 NMagM=    0.0000000   2.7928460   2.7928460   2.7928460   0.0000000   2.7928460
 AtZNuc=   8.0000000   1.0000000   1.0000000   1.0000000   8.0000000   1.0000000
 Leave Link  101 at Wed May 14 13:33:17 2025, MaxMem=  3758096384 cpu:               0.5 elap:               0.1
 (Enter /gpfs/fs1/soft/bebop/software/custom-built/gaussian/16-c.02/g16/l103.exe)

 GradGradGradGradGradGradGradGradGradGradGradGradGradGradGradGradGradGrad
 Berny optimization.
 Initialization pass.
 Trust Radius=3.00D-01 FncErr=1.00D-07 GrdErr=1.00D-07 EigMax=2.50D+02 EigMin=1.00D-04
 Number of steps in this run=      2 maximum allowed number of steps=      2.
 GradGradGradGradGradGradGradGradGradGradGradGradGradGradGradGradGradGrad

 Leave Link  103 at Wed May 14 13:33:17 2025, MaxMem=  3758096384 cpu:               0.1 elap:               0.0
 (Enter /gpfs/fs1/soft/bebop/software/custom-built/gaussian/16-c.02/g16/l202.exe)
                          Input orientation:                          
 ---------------------------------------------------------------------
 Center     Atomic      Atomic             Coordinates (Angstroms)
 Number     Number       Type             X           Y           Z
 ---------------------------------------------------------------------
      1          6           0        0.000000    0.000000    0.000000
      2          6           0        0.000000    0.000000    1.503302
      3          1           0        0.000000    0.953916   -0.534127
      4          6           0       -0.967315   -1.118499    1.966084
      5          1           0       -0.350448    0.981515    1.857020
      6          1           0        1.002233   -0.144699    1.942066
      7          6           0       -1.994814   -1.376477    0.896219
      8          1           0       -0.423739   -2.057798    2.154620
      9          1           0       -1.463831   -0.845722    2.911838
     10          6           0       -0.414184   -1.143595   -0.634847
     11          8           0       -2.836728   -0.359348    0.583236
     12          1           0       -2.432261   -2.384777    0.818372
     13          1           0       -0.682014   -1.123977   -1.695728
     14          1           0       -0.152354   -2.134727   -0.251139
     15          8           0       -3.796524   -0.203051    1.685233
     16          1           0       -4.605728   -0.483664    1.236441
 ---------------------------------------------------------------------
                    Distance matrix (angstroms):
                    1          2          3          4          5
     1  C    0.000000
     2  C    1.503302   0.000000
     3  H    1.093274   2.249683   0.000000
     4  C    2.460127   1.549486   3.388459   0.000000
     5  H    2.129486   1.100592   2.416849   2.191456   0.000000
     6  H    2.190212   1.103595   2.888418   2.197267   1.762197
     7  C    2.584024   2.498504   3.384657   1.505629   3.031040
     8  H    3.009398   2.199614   4.059475   1.101500   3.054728
     9  H    3.367024   2.200459   4.154055   1.102445   2.385594
    10  C    1.372002   2.459886   2.140384   2.659215   3.275600
    11  O    2.918274   3.003777   3.319667   2.446075   3.098714
    12  H    3.503254   3.474505   4.346495   2.250949   4.092024
    13  H    2.145684   3.458650   2.476308   3.672914   4.143073
    14  H    2.154842   2.767370   3.105320   2.571567   3.767564
    15  O    4.158706   3.806300   4.547277   2.986862   3.648033
    16  H    4.793271   4.638736   5.139482   3.764763   4.543047
                    6          7          8          9         10
     6  H    0.000000
     7  C    3.404903   0.000000
     8  H    2.395521   2.125100   0.000000
     9  H    2.741051   2.150898   1.767569   0.000000
    10  C    3.105561   2.212869   2.935470   3.710723   0.000000
    11  O    4.078004   1.356956   3.343127   2.746597   2.822674
    12  H    4.251633   1.101857   2.434468   2.772931   2.779391
    13  H    4.126647   2.916400   3.970379   4.681701   1.094343
    14  H    3.178589   2.299137   2.422240   3.658679   1.094591
    15  O    4.805979   2.290334   3.877640   2.712756   4.208042
    16  H    5.662334   2.780241   4.561796   3.579044   4.637485
                   11         12         13         14         15
    11  O    0.000000
    12  H    2.078760   0.000000
    13  H    3.228177   3.312655   0.000000
    14  H    3.324758   2.530683   1.840922   0.000000
    15  O    1.469706   2.715251   4.688195   4.556411   0.000000
    16  H    1.889839   2.917700   4.939954   4.977092   0.966938
                   16
    16  H    0.000000
 Stoichiometry    C5H9O2(2)
 Framework group  C1[X(C5H9O2)]
 Deg. of freedom    42
 Full point group                 C1      NOp   1
 Largest Abelian subgroup         C1      NOp   1
 Largest concise Abelian subgroup C1      NOp   1
                         Standard orientation:                         
 ---------------------------------------------------------------------
 Center     Atomic      Atomic             Coordinates (Angstroms)
 Number     Number       Type             X           Y           Z
 ---------------------------------------------------------------------
      1          6           0        1.689583   -0.309871   -0.678926
      2          6           0        1.255080    1.108639   -0.436120
      3          1           0        1.839975   -0.654118   -1.705631
      4          6           0        0.199977    1.081715    0.698313
      5          1           0        0.813253    1.506684   -1.362214
      6          1           0        2.088316    1.784683   -0.178040
      7          6           0       -0.473354   -0.264486    0.734164
      8          1           0        0.669782    1.257570    1.678956
      9          1           0       -0.549837    1.877990    0.560069
     10          6           0        1.481353   -1.218729    0.327556
     11          8           0       -1.193117   -0.629947   -0.356574
     12          1           0       -0.865411   -0.631748    1.696193
     13          1           0        1.531504   -2.292984    0.124960
     14          1           0        1.625245   -0.947864    1.378297
     15          8           0       -2.431106    0.161928   -0.375345
     16          1           0       -3.074877   -0.539672   -0.207161
 ---------------------------------------------------------------------
 Rotational constants (GHZ):           4.5188371           1.9225402           1.6975529
 Leave Link  202 at Wed May 14 13:33:17 2025, MaxMem=  3758096384 cpu:               0.0 elap:               0.0
 (Enter /gpfs/fs1/soft/bebop/software/custom-built/gaussian/16-c.02/g16/l301.exe)
 Standard basis: def2SVP (5D, 7F)
 Ernie: Thresh=  0.10000D-02 Tol=  0.10000D-05 Strict=F.
 There are   150 symmetry adapted cartesian basis functions of A   symmetry.
 There are   143 symmetry adapted basis functions of A   symmetry.
   143 basis functions,   238 primitive gaussians,   150 cartesian basis functions
    28 alpha electrons       27 beta electrons
       nuclear repulsion energy       312.7164280028 Hartrees.
 IExCor= 4639 DFT=T Ex+Corr=wB97XD ExCW=0 ScaHFX=  1.000000
 ScaDFX=  1.000000  1.000000  1.000000  1.000000 ScalE2=  1.000000  1.000000
 IRadAn=      5 IRanWt=     -1 IRanGd=            0 ICorTp=0 IEmpDi=121
 HFx  wShort=  0.000000 wLong=  0.200000 cFull=  0.222036 cShort=  0.000000 cLong=  0.777964
 DFx  wShort=  0.000000 wLong=  0.200000 cFull=  0.000000 cShort=  0.000000 cLong=  1.000000
 NAtoms=   16 NActive=   16 NUniq=   16 SFac= 1.00D+00 NAtFMM=   60 NAOKFM=F Big=F
 Integral buffers will be    131072 words long.
 Raffenetti 2 integral format.
 Two-electron integral symmetry is turned on.
 R6Disp:  Grimme-D2 Dispersion energy=       -0.0083025626 Hartrees.
 Nuclear repulsion after empirical dispersion term =      312.7081254402 Hartrees.
 Leave Link  301 at Wed May 14 13:33:17 2025, MaxMem=  3758096384 cpu:               0.3 elap:               0.1
 (Enter /gpfs/fs1/soft/bebop/software/custom-built/gaussian/16-c.02/g16/l302.exe)
 NPDir=0 NMtPBC=     1 NCelOv=     1 NCel=       1 NClECP=     1 NCelD=      1
         NCelK=      1 NCelE2=     1 NClLst=     1 CellRange=     0.0.
 One-electron integrals computed using PRISM.
 One-electron integral symmetry used in STVInt
   1 Symmetry operations used in ECPInt.
 ECPInt:  NShTT=    2415 NPrTT=    8503 LenC2=    2408 LenP2D=    7029.
 LDataN:  DoStor=T MaxTD1= 4 Len=   56
 NBasis=   143 RedAO= T EigKep=  1.15D-03  NBF=   143
 NBsUse=   143 1.00D-06 EigRej= -1.00D+00 NBFU=   143
 Precomputing XC quadrature grid using
 IXCGrd= 4 IRadAn=           5 IRanWt=          -1 IRanGd=           0 AccXCQ= 0.00D+00.
 Generated NRdTot=       0 NPtTot=           0 NUsed=           0 NTot=          32
 NSgBfM=   150   150   150   150   150 MxSgAt=    16 MxSgA2=    16.
 Leave Link  302 at Wed May 14 13:33:17 2025, MaxMem=  3758096384 cpu:               0.9 elap:               0.2
 (Enter /gpfs/fs1/soft/bebop/software/custom-built/gaussian/16-c.02/g16/l303.exe)
 DipDrv:  MaxL=1.
 Leave Link  303 at Wed May 14 13:33:17 2025, MaxMem=  3758096384 cpu:               0.1 elap:               0.0
 (Enter /gpfs/fs1/soft/bebop/software/custom-built/gaussian/16-c.02/g16/l401.exe)
 ExpMin= 1.22D-01 ExpMax= 2.27D+03 ExpMxC= 3.41D+02 IAcc=3 IRadAn=         5 AccDes= 0.00D+00
 Harris functional with IExCor= 4639 and IRadAn=       5 diagonalized for initial guess.
 HarFok:  IExCor= 4639 AccDes= 0.00D+00 IRadAn=         5 IDoV= 1 UseB2=F ITyADJ=14
 ICtDFT=  3500011 ScaDFX=  1.000000  1.000000  1.000000  1.000000
 FoFCou: FMM=F IPFlag=           0 FMFlag=      100000 FMFlg1=           0
         NFxFlg=           0 DoJE=T BraDBF=F KetDBF=T FulRan=T
         wScrn=  0.000000 ICntrl=       500 IOpCl=  0 I1Cent=   200000004 NGrid=           0
         NMat0=    1 NMatS0=      1 NMatT0=    0 NMatD0=    1 NMtDS0=    0 NMtDT0=    0
 Petite list used in FoFCou.
 Harris En= -331.230028646708    
 JPrj=0 DoOrth=F DoCkMO=F.
 Initial guess <Sx>= 0.0000 <Sy>= 0.0000 <Sz>= 0.5000 <S**2>= 0.7500 S= 0.5000
 Leave Link  401 at Wed May 14 13:33:18 2025, MaxMem=  3758096384 cpu:               3.2 elap:               0.6
 (Enter /gpfs/fs1/soft/bebop/software/custom-built/gaussian/16-c.02/g16/l502.exe)
 Keep R1 and R2 ints in memory in canonical form, NReq=219390812.
 FoFCou: FMM=F IPFlag=           0 FMFlag=           0 FMFlg1=           0
         NFxFlg=           0 DoJE=F BraDBF=F KetDBF=F FulRan=T
         wScrn=  0.000000 ICntrl=       600 IOpCl=  0 I1Cent=           0 NGrid=           0
         NMat0=    1 NMatS0=  10296 NMatT0=    0 NMatD0=    1 NMtDS0=    0 NMtDT0=    0
 Symmetry not used in FoFCou.
 Two-electron integral symmetry not used.
 UHF open shell SCF:
 Using DIIS extrapolation, IDIIS=  1040.
 NGot=  3758096384 LenX=  3546012518 LenY=  3545989577
 Requested convergence on RMS density matrix=1.00D-08 within  32 cycles.
 Requested convergence on MAX density matrix=1.00D-06.
 Requested convergence on             energy=1.00D-06.
 No special actions if energy rises.
 Integral accuracy reduced to 1.0D-05 until final iterations.

 Cycle   1  Pass 0  IDiag  1:
 E= -345.669221951509    
 DIIS: error= 3.00D-02 at cycle   1 NSaved=   1.
 NSaved= 1 IEnMin= 1 EnMin= -345.669221951509     IErMin= 1 ErrMin= 3.00D-02
 ErrMax= 3.00D-02  0.00D+00 EMaxC= 1.00D-01 BMatC= 9.66D-01 BMatP= 9.66D-01
 IDIUse=3 WtCom= 7.00D-01 WtEn= 3.00D-01
 Coeff-Com:  0.100D+01
 Coeff-En:   0.100D+01
 Coeff:      0.100D+01
 Gap=     0.324 Goal=   None    Shift=    0.000
 Gap=     0.464 Goal=   None    Shift=    0.000
 GapD=    0.324 DampG=1.000 DampE=0.500 DampFc=0.5000 IDamp=-1.
 Damping current iteration by 5.00D-01
 RMSDP=5.98D-03 MaxDP=1.41D-01              OVMax= 2.30D-01

 Cycle   2  Pass 0  IDiag  1:
 E= -345.733566409700     Delta-E=       -0.064344458192 Rises=F Damp=T
 DIIS: error= 1.65D-02 at cycle   2 NSaved=   2.
 NSaved= 2 IEnMin= 2 EnMin= -345.733566409700     IErMin= 2 ErrMin= 1.65D-02
 ErrMax= 1.65D-02  0.00D+00 EMaxC= 1.00D-01 BMatC= 1.22D-01 BMatP= 9.66D-01
 IDIUse=3 WtCom= 8.35D-01 WtEn= 1.65D-01
 Coeff-Com: -0.126D+00 0.113D+01
 Coeff-En:   0.000D+00 0.100D+01
 Coeff:     -0.105D+00 0.110D+01
 Gap=     0.384 Goal=   None    Shift=    0.000
 Gap=     0.416 Goal=   None    Shift=    0.000
 RMSDP=1.87D-03 MaxDP=6.09D-02 DE=-6.43D-02 OVMax= 1.68D-01

 Cycle   3  Pass 0  IDiag  1:
 E= -345.807488021659     Delta-E=       -0.073921611959 Rises=F Damp=F
 DIIS: error= 4.49D-03 at cycle   3 NSaved=   3.
 NSaved= 3 IEnMin= 3 EnMin= -345.807488021659     IErMin= 3 ErrMin= 4.49D-03
 ErrMax= 4.49D-03  0.00D+00 EMaxC= 1.00D-01 BMatC= 2.29D-02 BMatP= 1.22D-01
 IDIUse=3 WtCom= 9.55D-01 WtEn= 4.49D-02
 Coeff-Com: -0.148D+00 0.312D+00 0.836D+00
 Coeff-En:   0.000D+00 0.000D+00 0.100D+01
 Coeff:     -0.141D+00 0.298D+00 0.843D+00
 Gap=     0.313 Goal=   None    Shift=    0.000
 Gap=     0.346 Goal=   None    Shift=    0.000
 RMSDP=7.27D-04 MaxDP=1.62D-02 DE=-7.39D-02 OVMax= 3.45D-02

 Cycle   4  Pass 0  IDiag  1:
 E= -345.813739497555     Delta-E=       -0.006251475896 Rises=F Damp=F
 DIIS: error= 9.24D-04 at cycle   4 NSaved=   4.
 NSaved= 4 IEnMin= 4 EnMin= -345.813739497555     IErMin= 4 ErrMin= 9.24D-04
 ErrMax= 9.24D-04  0.00D+00 EMaxC= 1.00D-01 BMatC= 1.32D-03 BMatP= 2.29D-02
 IDIUse=3 WtCom= 9.91D-01 WtEn= 9.24D-03
 Coeff-Com: -0.381D-01 0.630D-01 0.248D+00 0.727D+00
 Coeff-En:   0.000D+00 0.000D+00 0.000D+00 0.100D+01
 Coeff:     -0.378D-01 0.624D-01 0.245D+00 0.730D+00
 Gap=     0.319 Goal=   None    Shift=    0.000
 Gap=     0.333 Goal=   None    Shift=    0.000
 RMSDP=2.66D-04 MaxDP=9.06D-03 DE=-6.25D-03 OVMax= 1.61D-02

 Cycle   5  Pass 0  IDiag  1:
 E= -345.814622960957     Delta-E=       -0.000883463401 Rises=F Damp=F
 DIIS: error= 6.92D-04 at cycle   5 NSaved=   5.
 NSaved= 5 IEnMin= 5 EnMin= -345.814622960957     IErMin= 5 ErrMin= 6.92D-04
 ErrMax= 6.92D-04  0.00D+00 EMaxC= 1.00D-01 BMatC= 4.18D-04 BMatP= 1.32D-03
 IDIUse=3 WtCom= 9.93D-01 WtEn= 6.92D-03
 Coeff-Com:  0.389D-01-0.813D-01-0.235D+00 0.127D-01 0.126D+01
 Coeff-En:   0.000D+00 0.000D+00 0.000D+00 0.000D+00 0.100D+01
 Coeff:      0.387D-01-0.808D-01-0.234D+00 0.126D-01 0.126D+01
 Gap=     0.325 Goal=   None    Shift=    0.000
 Gap=     0.340 Goal=   None    Shift=    0.000
 RMSDP=2.92D-04 MaxDP=9.22D-03 DE=-8.83D-04 OVMax= 2.18D-02

 Cycle   6  Pass 0  IDiag  1:
 E= -345.815259365634     Delta-E=       -0.000636404677 Rises=F Damp=F
 DIIS: error= 2.88D-04 at cycle   6 NSaved=   6.
 NSaved= 6 IEnMin= 6 EnMin= -345.815259365634     IErMin= 6 ErrMin= 2.88D-04
 ErrMax= 2.88D-04  0.00D+00 EMaxC= 1.00D-01 BMatC= 1.22D-04 BMatP= 4.18D-04
 IDIUse=3 WtCom= 9.97D-01 WtEn= 2.88D-03
 Coeff-Com:  0.221D-01-0.410D-01-0.143D+00-0.203D+00 0.452D+00 0.913D+00
 Coeff-En:   0.000D+00 0.000D+00 0.000D+00 0.000D+00 0.000D+00 0.100D+01
 Coeff:      0.221D-01-0.409D-01-0.142D+00-0.202D+00 0.451D+00 0.913D+00
 Gap=     0.328 Goal=   None    Shift=    0.000
 Gap=     0.343 Goal=   None    Shift=    0.000
 RMSDP=1.46D-04 MaxDP=5.27D-03 DE=-6.36D-04 OVMax= 1.16D-02

 Cycle   7  Pass 0  IDiag  1:
 E= -345.815400126427     Delta-E=       -0.000140760794 Rises=F Damp=F
 DIIS: error= 1.57D-04 at cycle   7 NSaved=   7.
 NSaved= 7 IEnMin= 7 EnMin= -345.815400126427     IErMin= 7 ErrMin= 1.57D-04
 ErrMax= 1.57D-04  0.00D+00 EMaxC= 1.00D-01 BMatC= 3.15D-05 BMatP= 1.22D-04
 IDIUse=3 WtCom= 9.98D-01 WtEn= 1.57D-03
 Coeff-Com: -0.413D-03 0.281D-02-0.258D-02-0.828D-01-0.805D-01 0.347D+00
 Coeff-Com:  0.817D+00
 Coeff-En:   0.000D+00 0.000D+00 0.000D+00 0.000D+00 0.000D+00 0.000D+00
 Coeff-En:   0.100D+01
 Coeff:     -0.413D-03 0.280D-02-0.258D-02-0.826D-01-0.804D-01 0.346D+00
 Coeff:      0.817D+00
 Gap=     0.329 Goal=   None    Shift=    0.000
 Gap=     0.344 Goal=   None    Shift=    0.000
 RMSDP=5.28D-05 MaxDP=1.96D-03 DE=-1.41D-04 OVMax= 4.57D-03

 Cycle   8  Pass 0  IDiag  1:
 E= -345.815423541382     Delta-E=       -0.000023414955 Rises=F Damp=F
 DIIS: error= 1.15D-04 at cycle   8 NSaved=   8.
 NSaved= 8 IEnMin= 8 EnMin= -345.815423541382     IErMin= 8 ErrMin= 1.15D-04
 ErrMax= 1.15D-04  0.00D+00 EMaxC= 1.00D-01 BMatC= 8.47D-06 BMatP= 3.15D-05
 IDIUse=3 WtCom= 9.99D-01 WtEn= 1.15D-03
 Coeff-Com: -0.675D-02 0.133D-01 0.396D-01 0.234D-01-0.148D+00-0.130D+00
 Coeff-Com:  0.334D+00 0.875D+00
 Coeff-En:   0.000D+00 0.000D+00 0.000D+00 0.000D+00 0.000D+00 0.000D+00
 Coeff-En:   0.000D+00 0.100D+01
 Coeff:     -0.675D-02 0.133D-01 0.395D-01 0.234D-01-0.148D+00-0.130D+00
 Coeff:      0.334D+00 0.875D+00
 Gap=     0.329 Goal=   None    Shift=    0.000
 Gap=     0.344 Goal=   None    Shift=    0.000
 RMSDP=2.75D-05 MaxDP=1.09D-03 DE=-2.34D-05 OVMax= 2.58D-03

 Cycle   9  Pass 0  IDiag  1:
 E= -345.815429539264     Delta-E=       -0.000005997882 Rises=F Damp=F
 DIIS: error= 3.59D-05 at cycle   9 NSaved=   9.
 NSaved= 9 IEnMin= 9 EnMin= -345.815429539264     IErMin= 9 ErrMin= 3.59D-05
 ErrMax= 3.59D-05  0.00D+00 EMaxC= 1.00D-01 BMatC= 1.70D-06 BMatP= 8.47D-06
 IDIUse=1 WtCom= 1.00D+00 WtEn= 0.00D+00
 Coeff-Com: -0.236D-02 0.444D-02 0.145D-01 0.201D-01-0.409D-01-0.117D+00
 Coeff-Com: -0.321D-02 0.366D+00 0.759D+00
 Coeff:     -0.236D-02 0.444D-02 0.145D-01 0.201D-01-0.409D-01-0.117D+00
 Coeff:     -0.321D-02 0.366D+00 0.759D+00
 Gap=     0.329 Goal=   None    Shift=    0.000
 Gap=     0.344 Goal=   None    Shift=    0.000
 RMSDP=1.17D-05 MaxDP=3.95D-04 DE=-6.00D-06 OVMax= 8.85D-04

 Failed to achieve initial convergence to 1.0D-08 in 10 cycles.
 Switch to full accuracy anyway.
 Cycle  10  Pass 1  IDiag  1:
 E= -345.815380017018     Delta-E=        0.000049522246 Rises=F Damp=F
 DIIS: error= 2.43D-05 at cycle   1 NSaved=   1.
 NSaved= 1 IEnMin= 1 EnMin= -345.815380017018     IErMin= 1 ErrMin= 2.43D-05
 ErrMax= 2.43D-05  0.00D+00 EMaxC= 1.00D-01 BMatC= 6.97D-07 BMatP= 6.97D-07
 IDIUse=1 WtCom= 1.00D+00 WtEn= 0.00D+00
 Coeff-Com:  0.100D+01
 Coeff:      0.100D+01
 Gap=     0.329 Goal=   None    Shift=    0.000
 Gap=     0.344 Goal=   None    Shift=    0.000
 RMSDP=1.17D-05 MaxDP=3.95D-04 DE= 4.95D-05 OVMax= 3.68D-04

 Cycle  11  Pass 1  IDiag  1:
 E= -345.815380398248     Delta-E=       -0.000000381230 Rises=F Damp=F
 DIIS: error= 1.37D-05 at cycle   2 NSaved=   2.
 NSaved= 2 IEnMin= 2 EnMin= -345.815380398248     IErMin= 2 ErrMin= 1.37D-05
 ErrMax= 1.37D-05  0.00D+00 EMaxC= 1.00D-01 BMatC= 1.66D-07 BMatP= 6.97D-07
 IDIUse=1 WtCom= 1.00D+00 WtEn= 0.00D+00
 Coeff-Com:  0.721D-01 0.928D+00
 Coeff:      0.721D-01 0.928D+00
 Gap=     0.329 Goal=   None    Shift=    0.000
 Gap=     0.344 Goal=   None    Shift=    0.000
 RMSDP=3.20D-06 MaxDP=8.68D-05 DE=-3.81D-07 OVMax= 1.49D-04

 Cycle  12  Pass 1  IDiag  1:
 E= -345.815380507565     Delta-E=       -0.000000109316 Rises=F Damp=F
 DIIS: error= 1.48D-05 at cycle   3 NSaved=   3.
 NSaved= 3 IEnMin= 3 EnMin= -345.815380507565     IErMin= 2 ErrMin= 1.37D-05
 ErrMax= 1.48D-05  0.00D+00 EMaxC= 1.00D-01 BMatC= 1.14D-07 BMatP= 1.66D-07
 IDIUse=1 WtCom= 1.00D+00 WtEn= 0.00D+00
 Coeff-Com: -0.156D+00 0.464D+00 0.692D+00
 Coeff:     -0.156D+00 0.464D+00 0.692D+00
 Gap=     0.329 Goal=   None    Shift=    0.000
 Gap=     0.344 Goal=   None    Shift=    0.000
 RMSDP=1.99D-06 MaxDP=6.32D-05 DE=-1.09D-07 OVMax= 1.43D-04

 Cycle  13  Pass 1  IDiag  1:
 E= -345.815380573738     Delta-E=       -0.000000066173 Rises=F Damp=F
 DIIS: error= 6.73D-06 at cycle   4 NSaved=   4.
 NSaved= 4 IEnMin= 4 EnMin= -345.815380573738     IErMin= 4 ErrMin= 6.73D-06
 ErrMax= 6.73D-06  0.00D+00 EMaxC= 1.00D-01 BMatC= 2.63D-08 BMatP= 1.14D-07
 IDIUse=1 WtCom= 1.00D+00 WtEn= 0.00D+00
 Coeff-Com: -0.388D-01-0.223D+00 0.982D-01 0.116D+01
 Coeff:     -0.388D-01-0.223D+00 0.982D-01 0.116D+01
 Gap=     0.329 Goal=   None    Shift=    0.000
 Gap=     0.344 Goal=   None    Shift=    0.000
 RMSDP=2.05D-06 MaxDP=5.83D-05 DE=-6.62D-08 OVMax= 1.37D-04

 Cycle  14  Pass 1  IDiag  1:
 E= -345.815380610086     Delta-E=       -0.000000036348 Rises=F Damp=F
 DIIS: error= 5.15D-06 at cycle   5 NSaved=   5.
 NSaved= 5 IEnMin= 5 EnMin= -345.815380610086     IErMin= 5 ErrMin= 5.15D-06
 ErrMax= 5.15D-06  0.00D+00 EMaxC= 1.00D-01 BMatC= 1.16D-08 BMatP= 2.63D-08
 IDIUse=1 WtCom= 1.00D+00 WtEn= 0.00D+00
 Coeff-Com:  0.505D-01-0.352D+00-0.282D+00 0.628D+00 0.956D+00
 Coeff:      0.505D-01-0.352D+00-0.282D+00 0.628D+00 0.956D+00
 Gap=     0.329 Goal=   None    Shift=    0.000
 Gap=     0.344 Goal=   None    Shift=    0.000
 RMSDP=1.64D-06 MaxDP=4.36D-05 DE=-3.63D-08 OVMax= 1.03D-04

 Cycle  15  Pass 1  IDiag  1:
 E= -345.815380623330     Delta-E=       -0.000000013244 Rises=F Damp=F
 DIIS: error= 1.16D-06 at cycle   6 NSaved=   6.
 NSaved= 6 IEnMin= 6 EnMin= -345.815380623330     IErMin= 6 ErrMin= 1.16D-06
 ErrMax= 1.16D-06  0.00D+00 EMaxC= 1.00D-01 BMatC= 1.12D-09 BMatP= 1.16D-08
 IDIUse=1 WtCom= 1.00D+00 WtEn= 0.00D+00
 Coeff-Com:  0.196D-01-0.567D-01-0.942D-01-0.140D-02 0.278D+00 0.855D+00
 Coeff:      0.196D-01-0.567D-01-0.942D-01-0.140D-02 0.278D+00 0.855D+00
 Gap=     0.329 Goal=   None    Shift=    0.000
 Gap=     0.344 Goal=   None    Shift=    0.000
 RMSDP=3.40D-07 MaxDP=8.95D-06 DE=-1.32D-08 OVMax= 1.73D-05

 Cycle  16  Pass 1  IDiag  1:
 E= -345.815380624203     Delta-E=       -0.000000000873 Rises=F Damp=F
 DIIS: error= 4.93D-07 at cycle   7 NSaved=   7.
 NSaved= 7 IEnMin= 7 EnMin= -345.815380624203     IErMin= 7 ErrMin= 4.93D-07
 ErrMax= 4.93D-07  0.00D+00 EMaxC= 1.00D-01 BMatC= 1.94D-10 BMatP= 1.12D-09
 IDIUse=1 WtCom= 1.00D+00 WtEn= 0.00D+00
 Coeff-Com: -0.630D-02 0.624D-01 0.308D-01-0.134D+00-0.117D+00 0.148D+00
 Coeff-Com:  0.102D+01
 Coeff:     -0.630D-02 0.624D-01 0.308D-01-0.134D+00-0.117D+00 0.148D+00
 Coeff:      0.102D+01
 Gap=     0.329 Goal=   None    Shift=    0.000
 Gap=     0.344 Goal=   None    Shift=    0.000
 RMSDP=1.64D-07 MaxDP=3.90D-06 DE=-8.73D-10 OVMax= 9.48D-06

 Cycle  17  Pass 1  IDiag  1:
 E= -345.815380624401     Delta-E=       -0.000000000197 Rises=F Damp=F
 DIIS: error= 1.69D-07 at cycle   8 NSaved=   8.
 NSaved= 8 IEnMin= 8 EnMin= -345.815380624401     IErMin= 8 ErrMin= 1.69D-07
 ErrMax= 1.69D-07  0.00D+00 EMaxC= 1.00D-01 BMatC= 4.94D-11 BMatP= 1.94D-10
 IDIUse=1 WtCom= 1.00D+00 WtEn= 0.00D+00
 Coeff-Com: -0.566D-02 0.306D-01 0.266D-01-0.396D-01-0.815D-01-0.149D+00
 Coeff-Com:  0.314D+00 0.905D+00
 Coeff:     -0.566D-02 0.306D-01 0.266D-01-0.396D-01-0.815D-01-0.149D+00
 Coeff:      0.314D+00 0.905D+00
 Gap=     0.329 Goal=   None    Shift=    0.000
 Gap=     0.344 Goal=   None    Shift=    0.000
 RMSDP=7.75D-08 MaxDP=1.80D-06 DE=-1.97D-10 OVMax= 3.72D-06

 Cycle  18  Pass 1  IDiag  1:
 E= -345.815380624440     Delta-E=       -0.000000000039 Rises=F Damp=F
 DIIS: error= 7.87D-08 at cycle   9 NSaved=   9.
 NSaved= 9 IEnMin= 9 EnMin= -345.815380624440     IErMin= 9 ErrMin= 7.87D-08
 ErrMax= 7.87D-08  0.00D+00 EMaxC= 1.00D-01 BMatC= 6.35D-12 BMatP= 4.94D-11
 IDIUse=1 WtCom= 1.00D+00 WtEn= 0.00D+00
 Coeff-Com: -0.387D-05-0.457D-02-0.756D-03 0.145D-01 0.596D-02-0.564D-01
 Coeff-Com: -0.106D+00 0.169D+00 0.979D+00
 Coeff:     -0.387D-05-0.457D-02-0.756D-03 0.145D-01 0.596D-02-0.564D-01
 Coeff:     -0.106D+00 0.169D+00 0.979D+00
 Gap=     0.329 Goal=   None    Shift=    0.000
 Gap=     0.344 Goal=   None    Shift=    0.000
 RMSDP=2.89D-08 MaxDP=9.33D-07 DE=-3.89D-11 OVMax= 1.61D-06

 Cycle  19  Pass 1  IDiag  1:
 E= -345.815380624446     Delta-E=       -0.000000000006 Rises=F Damp=F
 DIIS: error= 3.63D-08 at cycle  10 NSaved=  10.
 NSaved=10 IEnMin=10 EnMin= -345.815380624446     IErMin=10 ErrMin= 3.63D-08
 ErrMax= 3.63D-08  0.00D+00 EMaxC= 1.00D-01 BMatC= 1.39D-12 BMatP= 6.35D-12
 IDIUse=1 WtCom= 1.00D+00 WtEn= 0.00D+00
 Coeff-Com:  0.938D-03-0.626D-02-0.475D-02 0.107D-01 0.150D-01 0.118D-01
 Coeff-Com: -0.801D-01-0.109D+00 0.223D+00 0.939D+00
 Coeff:      0.938D-03-0.626D-02-0.475D-02 0.107D-01 0.150D-01 0.118D-01
 Coeff:     -0.801D-01-0.109D+00 0.223D+00 0.939D+00
 Gap=     0.329 Goal=   None    Shift=    0.000
 Gap=     0.344 Goal=   None    Shift=    0.000
 RMSDP=1.22D-08 MaxDP=3.53D-07 DE=-6.37D-12 OVMax= 6.93D-07

 Cycle  20  Pass 1  IDiag  1:
 E= -345.815380624447     Delta-E=       -0.000000000001 Rises=F Damp=F
 DIIS: error= 1.64D-08 at cycle  11 NSaved=  11.
 NSaved=11 IEnMin=11 EnMin= -345.815380624447     IErMin=11 ErrMin= 1.64D-08
 ErrMax= 1.64D-08  0.00D+00 EMaxC= 1.00D-01 BMatC= 3.50D-13 BMatP= 1.39D-12
 IDIUse=1 WtCom= 1.00D+00 WtEn= 0.00D+00
 Coeff-Com:  0.153D-03 0.691D-04-0.616D-03-0.175D-02 0.663D-03 0.175D-01
 Coeff-Com:  0.124D-01-0.623D-01-0.224D+00 0.159D+00 0.110D+01
 Coeff:      0.153D-03 0.691D-04-0.616D-03-0.175D-02 0.663D-03 0.175D-01
 Coeff:      0.124D-01-0.623D-01-0.224D+00 0.159D+00 0.110D+01
 Gap=     0.329 Goal=   None    Shift=    0.000
 Gap=     0.344 Goal=   None    Shift=    0.000
 RMSDP=7.82D-09 MaxDP=2.74D-07 DE=-1.25D-12 OVMax= 5.30D-07

 SCF Done:  E(UwB97XD) =  -345.815380624     A.U. after   20 cycles
            NFock= 20  Conv=0.78D-08     -V/T= 2.0094
 <Sx>= 0.0000 <Sy>= 0.0000 <Sz>= 0.5000 <S**2>= 0.8059 S= 0.5276
 <L.S>=  0.00000000000    
 KE= 3.425896138237D+02 PE=-1.432639026253D+03 EE= 4.315259063649D+02
 Annihilation of the first spin contaminant:
 S**2 before annihilation     0.8059,   after     0.7508
 Leave Link  502 at Wed May 14 13:33:33 2025, MaxMem=  3758096384 cpu:              75.4 elap:              15.2
 (Enter /gpfs/fs1/soft/bebop/software/custom-built/gaussian/16-c.02/g16/l508.exe)
 QCSCF skips out because SCF is already converged.
 Leave Link  508 at Wed May 14 13:33:33 2025, MaxMem=  3758096384 cpu:               0.0 elap:               0.0
 (Enter /gpfs/fs1/soft/bebop/software/custom-built/gaussian/16-c.02/g16/l801.exe)
 DoSCS=F DFT=T ScalE2(SS,OS)=  1.000000  1.000000
 Range of M.O.s used for correlation:     1   143
 NBasis=   143 NAE=    28 NBE=    27 NFC=     0 NFV=     0
 NROrb=    143 NOA=    28 NOB=    27 NVA=   115 NVB=   116
 Leave Link  801 at Wed May 14 13:33:33 2025, MaxMem=  3758096384 cpu:               0.1 elap:               0.0
 (Enter /gpfs/fs1/soft/bebop/software/custom-built/gaussian/16-c.02/g16/l1101.exe)
 Using compressed storage, NAtomX=    16.
 Will process     17 centers per pass.
   1 Symmetry operations used in ECPInt.
 ECPInt:  NShTT=    2415 NPrTT=    8503 LenC2=    2408 LenP2D=    7029.
 LDataN:  DoStor=T MaxTD1= 5 Len=  102
 R6Disp: Adding Grimme-D2 dispersion energy 1st derivatives to the gradient.
 Leave Link 1101 at Wed May 14 13:33:33 2025, MaxMem=  3758096384 cpu:               0.6 elap:               0.1
 (Enter /gpfs/fs1/soft/bebop/software/custom-built/gaussian/16-c.02/g16/l1102.exe)
 Symmetrizing basis deriv contribution to polar:
 IMax=3 JMax=2 DiffMx= 0.00D+00
 Leave Link 1102 at Wed May 14 13:33:33 2025, MaxMem=  3758096384 cpu:               0.1 elap:               0.0
 (Enter /gpfs/fs1/soft/bebop/software/custom-built/gaussian/16-c.02/g16/l1110.exe)
 Forming Gx(P) for the SCF density, NAtomX=    16.
 Integral derivatives from FoFJK, PRISM(SPDF).
 Do as many integral derivatives as possible in FoFJK.
 G2DrvN: MDV=    3758094600.
 G2DrvN: will do    17 centers at a time, making    1 passes.
 Calling FoFCou, ICntrl=  3107 FMM=F I1Cent=   0 AccDes= 0.00D+00.
 FoFJK:  IHMeth= 1 ICntrl=    3107 DoSepK=T KAlg= 0 I1Cent=           0 FoldK=F
 IRaf=         1 NMat=       1 IRICut=       1 DoRegI=T DoRafI=F ISym2E= 0 IDoP0=0 IntGTp=1.
 FoFCou: FMM=F IPFlag=           0 FMFlag=      100000 FMFlg1=           0
         NFxFlg=           0 DoJE=F BraDBF=F KetDBF=F FulRan=T
         wScrn=  0.000000 ICntrl=      3507 IOpCl=  0 I1Cent=           0 NGrid=           0
         NMat0=    1 NMatS0=      1 NMatT0=    0 NMatD0=    1 NMtDS0=    0 NMtDT0=    0
 Symmetry not used in FoFCou.
 End of G2Drv F.D. properties file   721 does not exist.
 End of G2Drv F.D. properties file   722 does not exist.
 End of G2Drv F.D. properties file   788 does not exist.
 Leave Link 1110 at Wed May 14 13:33:56 2025, MaxMem=  3758096384 cpu:             134.8 elap:              22.5
 (Enter /gpfs/fs1/soft/bebop/software/custom-built/gaussian/16-c.02/g16/l1002.exe)
 Minotr:  UHF open shell wavefunction.
          IDoAtm=1111111111111111
          Direct CPHF calculation.
          Differentiating once with respect to electric field.
                with respect to dipole field.
          Differentiating once with respect to nuclear coordinates.
          Requested convergence is 1.0D-08 RMS, and 1.0D-07 maximum.
          Secondary convergence is 1.0D-12 RMS, and 1.0D-12 maximum.
          NewPWx=T KeepS1=F KeepF1=F KeepIn=T MapXYZ=F SortEE=F KeepMc=T.
         4741 words used for storage of precomputed grid.
 Keep R1 and R2 ints in memory in canonical form, NReq=219386903.
 FoFCou: FMM=F IPFlag=           0 FMFlag=           0 FMFlg1=           0
         NFxFlg=           0 DoJE=F BraDBF=F KetDBF=F FulRan=T
         wScrn=  0.000000 ICntrl=       600 IOpCl=  0 I1Cent=           0 NGrid=           0
         NMat0=    1 NMatS0=  10296 NMatT0=    0 NMatD0=    1 NMtDS0=    0 NMtDT0=    0
 Symmetry not used in FoFCou.
 Two-electron integral symmetry not used.
          MDV=    3758096384 using IRadAn=       1.
          Solving linear equations simultaneously, MaxMat=       0.
          There are    51 degrees of freedom in the 1st order CPHF.  IDoFFX=6 NUNeed=     3.
     48 vectors produced by pass  0 Test12= 1.25D-14 1.96D-09 XBig12= 7.64D+01 4.31D+00.
 AX will form    48 AO Fock derivatives at one time.
     48 vectors produced by pass  1 Test12= 1.25D-14 1.96D-09 XBig12= 6.26D+00 3.61D-01.
     48 vectors produced by pass  2 Test12= 1.25D-14 1.96D-09 XBig12= 4.51D-01 8.98D-02.
     48 vectors produced by pass  3 Test12= 1.25D-14 1.96D-09 XBig12= 9.72D-03 1.38D-02.
     48 vectors produced by pass  4 Test12= 1.25D-14 1.96D-09 XBig12= 1.47D-04 1.89D-03.
     48 vectors produced by pass  5 Test12= 1.25D-14 1.96D-09 XBig12= 1.20D-06 1.93D-04.
     48 vectors produced by pass  6 Test12= 1.25D-14 1.96D-09 XBig12= 1.04D-08 1.46D-05.
     23 vectors produced by pass  7 Test12= 1.25D-14 1.96D-09 XBig12= 8.12D-11 1.05D-06.
      3 vectors produced by pass  8 Test12= 1.25D-14 1.96D-09 XBig12= 7.01D-13 9.23D-08.
      3 vectors produced by pass  9 Test12= 1.25D-14 1.96D-09 XBig12= 4.78D-15 6.22D-09.
 InvSVY:  IOpt=1 It=  1 EMax= 1.78D-15
 Solved reduced A of dimension   365 with    51 vectors.
 FullF1:  Do perturbations      1 to       3.
 Isotropic polarizability for W=    0.000000       67.73 Bohr**3.
 End of Minotr F.D. properties file   721 does not exist.
 End of Minotr F.D. properties file   722 does not exist.
 End of Minotr F.D. properties file   788 does not exist.
 Leave Link 1002 at Wed May 14 13:34:24 2025, MaxMem=  3758096384 cpu:             167.4 elap:              28.0
 (Enter /gpfs/fs1/soft/bebop/software/custom-built/gaussian/16-c.02/g16/l601.exe)
 Copying SCF densities to generalized density rwf, IOpCl= 1 IROHF=0.

 **********************************************************************

            Population analysis using the SCF Density.

 **********************************************************************

 Orbital symmetries:
 Alpha Orbitals:
       Occupied  (A) (A) (A) (A) (A) (A) (A) (A) (A) (A) (A) (A)
                 (A) (A) (A) (A) (A) (A) (A) (A) (A) (A) (A) (A)
                 (A) (A) (A) (A)
       Virtual   (A) (A) (A) (A) (A) (A) (A) (A) (A) (A) (A) (A)
                 (A) (A) (A) (A) (A) (A) (A) (A) (A) (A) (A) (A)
                 (A) (A) (A) (A) (A) (A) (A) (A) (A) (A) (A) (A)
                 (A) (A) (A) (A) (A) (A) (A) (A) (A) (A) (A) (A)
                 (A) (A) (A) (A) (A) (A) (A) (A) (A) (A) (A) (A)
                 (A) (A) (A) (A) (A) (A) (A) (A) (A) (A) (A) (A)
                 (A) (A) (A) (A) (A) (A) (A) (A) (A) (A) (A) (A)
                 (A) (A) (A) (A) (A) (A) (A) (A) (A) (A) (A) (A)
                 (A) (A) (A) (A) (A) (A) (A) (A) (A) (A) (A) (A)
                 (A) (A) (A) (A) (A) (A) (A)
 Beta  Orbitals:
       Occupied  (A) (A) (A) (A) (A) (A) (A) (A) (A) (A) (A) (A)
                 (A) (A) (A) (A) (A) (A) (A) (A) (A) (A) (A) (A)
                 (A) (A) (A)
       Virtual   (A) (A) (A) (A) (A) (A) (A) (A) (A) (A) (A) (A)
                 (A) (A) (A) (A) (A) (A) (A) (A) (A) (A) (A) (A)
                 (A) (A) (A) (A) (A) (A) (A) (A) (A) (A) (A) (A)
                 (A) (A) (A) (A) (A) (A) (A) (A) (A) (A) (A) (A)
                 (A) (A) (A) (A) (A) (A) (A) (A) (A) (A) (A) (A)
                 (A) (A) (A) (A) (A) (A) (A) (A) (A) (A) (A) (A)
                 (A) (A) (A) (A) (A) (A) (A) (A) (A) (A) (A) (A)
                 (A) (A) (A) (A) (A) (A) (A) (A) (A) (A) (A) (A)
                 (A) (A) (A) (A) (A) (A) (A) (A) (A) (A) (A) (A)
                 (A) (A) (A) (A) (A) (A) (A) (A)
 The electronic state is 2-A.
 Alpha  occ. eigenvalues --  -19.30693 -19.29830 -10.35532 -10.30443 -10.30042
 Alpha  occ. eigenvalues --  -10.29824 -10.29695  -1.20621  -1.01341  -0.90917
 Alpha  occ. eigenvalues --   -0.81870  -0.76583  -0.67518  -0.63798  -0.59852
 Alpha  occ. eigenvalues --   -0.58301  -0.57721  -0.53451  -0.50972  -0.49125
 Alpha  occ. eigenvalues --   -0.47849  -0.46325  -0.43226  -0.42279  -0.38604
 Alpha  occ. eigenvalues --   -0.35804  -0.34947  -0.25373
 Alpha virt. eigenvalues --    0.07548   0.12635   0.14030   0.15926   0.16579
 Alpha virt. eigenvalues --    0.18519   0.20523   0.21249   0.22603   0.23390
 Alpha virt. eigenvalues --    0.27011   0.29486   0.30297   0.32972   0.38351
 Alpha virt. eigenvalues --    0.41339   0.49774   0.52188   0.53653   0.55239
 Alpha virt. eigenvalues --    0.57430   0.59765   0.62383   0.65099   0.67418
 Alpha virt. eigenvalues --    0.68235   0.69370   0.71271   0.72099   0.73386
 Alpha virt. eigenvalues --    0.73757   0.74934   0.77184   0.77594   0.78335
 Alpha virt. eigenvalues --    0.79045   0.79846   0.81079   0.82468   0.87484
 Alpha virt. eigenvalues --    0.90434   0.92127   0.96627   1.00474   1.02947
 Alpha virt. eigenvalues --    1.08231   1.13051   1.15393   1.20001   1.25712
 Alpha virt. eigenvalues --    1.27507   1.34100   1.37113   1.41896   1.43649
 Alpha virt. eigenvalues --    1.46651   1.51104   1.52218   1.58231   1.62780
 Alpha virt. eigenvalues --    1.64266   1.68317   1.72845   1.74322   1.76537
 Alpha virt. eigenvalues --    1.80499   1.83249   1.85513   1.86362   1.87749
 Alpha virt. eigenvalues --    1.90616   1.92735   1.95467   1.96816   1.97845
 Alpha virt. eigenvalues --    1.98604   2.03856   2.05528   2.10207   2.11866
 Alpha virt. eigenvalues --    2.13075   2.19070   2.20322   2.25768   2.28211
 Alpha virt. eigenvalues --    2.29818   2.32639   2.34235   2.39461   2.41975
 Alpha virt. eigenvalues --    2.47992   2.52112   2.56097   2.57890   2.63337
 Alpha virt. eigenvalues --    2.65900   2.69278   2.71092   2.80276   2.84625
 Alpha virt. eigenvalues --    2.86515   2.90162   2.91450   2.97625   3.02271
 Alpha virt. eigenvalues --    3.05335   3.07334   3.12450   3.16767   3.21705
 Alpha virt. eigenvalues --    3.28627   3.33889   3.47318   3.66335   3.92986
  Beta  occ. eigenvalues --  -19.30780 -19.29472 -10.34565 -10.30736 -10.29846
  Beta  occ. eigenvalues --  -10.29734 -10.29386  -1.20048  -1.00408  -0.90226
  Beta  occ. eigenvalues --   -0.81342  -0.75848  -0.66403  -0.62873  -0.59063
  Beta  occ. eigenvalues --   -0.57765  -0.57244  -0.52855  -0.50231  -0.48429
  Beta  occ. eigenvalues --   -0.47360  -0.45570  -0.42733  -0.41980  -0.38248
  Beta  occ. eigenvalues --   -0.34764  -0.33678
  Beta virt. eigenvalues --    0.00754   0.09220   0.13774   0.15501   0.16209
  Beta virt. eigenvalues --    0.16775   0.18570   0.20628   0.21680   0.22712
  Beta virt. eigenvalues --    0.23676   0.27272   0.29899   0.30967   0.33920
  Beta virt. eigenvalues --    0.39064   0.41731   0.50034   0.52544   0.54158
  Beta virt. eigenvalues --    0.55630   0.58234   0.60921   0.63051   0.66059
  Beta virt. eigenvalues --    0.67798   0.69517   0.69996   0.71647   0.72614
  Beta virt. eigenvalues --    0.73853   0.74346   0.75315   0.77432   0.78005
  Beta virt. eigenvalues --    0.78588   0.79153   0.80150   0.81458   0.82893
  Beta virt. eigenvalues --    0.87802   0.91126   0.92294   0.97004   1.00869
  Beta virt. eigenvalues --    1.03401   1.08716   1.13358   1.15767   1.20223
  Beta virt. eigenvalues --    1.26041   1.27889   1.34402   1.37619   1.42218
  Beta virt. eigenvalues --    1.44244   1.46955   1.51403   1.52391   1.58866
  Beta virt. eigenvalues --    1.63328   1.65043   1.68970   1.73706   1.74630
  Beta virt. eigenvalues --    1.76893   1.80667   1.83481   1.86037   1.87094
  Beta virt. eigenvalues --    1.88217   1.91191   1.93105   1.95994   1.97341
  Beta virt. eigenvalues --    1.98752   1.99812   2.04200   2.05639   2.10826
  Beta virt. eigenvalues --    2.12870   2.14247   2.19946   2.21089   2.26263
  Beta virt. eigenvalues --    2.28458   2.30841   2.33836   2.34437   2.39879
  Beta virt. eigenvalues --    2.42713   2.48629   2.52646   2.56454   2.58366
  Beta virt. eigenvalues --    2.64315   2.66501   2.69996   2.71663   2.80741
  Beta virt. eigenvalues --    2.84802   2.86776   2.90533   2.92278   2.97840
  Beta virt. eigenvalues --    3.02452   3.05593   3.07604   3.12692   3.17355
  Beta virt. eigenvalues --    3.22401   3.29317   3.34189   3.47831   3.66529
  Beta virt. eigenvalues --    3.93471
          Condensed to atoms (all electrons):
               1          2          3          4          5          6
     1  C    4.931727   0.394294   0.412098  -0.086459  -0.015963  -0.014687
     2  C    0.394294   4.710509  -0.041152   0.367661   0.370457   0.368248
     3  H    0.412098  -0.041152   0.626300   0.006433  -0.010295   0.003759
     4  C   -0.086459   0.367661   0.006433   4.878740  -0.010733  -0.016283
     5  H   -0.015963   0.370457  -0.010295  -0.010733   0.643806  -0.023658
     6  H   -0.014687   0.368248   0.003759  -0.016283  -0.023658   0.639199
     7  C   -0.054581  -0.082085   0.001003   0.332631  -0.005476   0.005691
     8  H   -0.006903  -0.008256  -0.000397   0.358134   0.006333  -0.012169
     9  H    0.004342  -0.016340  -0.000118   0.360153  -0.011360   0.001227
    10  C    0.580476  -0.086690  -0.035301  -0.038283   0.004903  -0.001062
    11  O    0.003701   0.010879  -0.000472  -0.057993   0.002875  -0.000043
    12  H    0.003148   0.010865  -0.000137  -0.070345  -0.000165  -0.000228
    13  H   -0.024761   0.010264  -0.011963   0.000087  -0.000255  -0.000379
    14  H   -0.008173  -0.016856   0.006402   0.007386   0.000066   0.001217
    15  O   -0.001127  -0.001124  -0.000004  -0.009506   0.000430  -0.000011
    16  H    0.000207   0.000135   0.000002  -0.000528  -0.000027   0.000002
               7          8          9         10         11         12
     1  C   -0.054581  -0.006903   0.004342   0.580476   0.003701   0.003148
     2  C   -0.082085  -0.008256  -0.016340  -0.086690   0.010879   0.010865
     3  H    0.001003  -0.000397  -0.000118  -0.035301  -0.000472  -0.000137
     4  C    0.332631   0.358134   0.360153  -0.038283  -0.057993  -0.070345
     5  H   -0.005476   0.006333  -0.011360   0.004903   0.002875  -0.000165
     6  H    0.005691  -0.012169   0.001227  -0.001062  -0.000043  -0.000228
     7  C    5.034487  -0.022012  -0.000275   0.141485   0.288689   0.402814
     8  H   -0.022012   0.670986  -0.023271   0.002817   0.004358  -0.002205
     9  H   -0.000275  -0.023271   0.621638   0.003746  -0.007974   0.000308
    10  C    0.141485   0.002817   0.003746   4.731863  -0.023973  -0.009037
    11  O    0.288689   0.004358  -0.007974  -0.023973   7.971253  -0.031480
    12  H    0.402814  -0.002205   0.000308  -0.009037  -0.031480   0.668587
    13  H    0.002395   0.000063  -0.000056   0.393780  -0.000081   0.000136
    14  H   -0.037596   0.000255  -0.000266   0.385460   0.001243  -0.000697
    15  O   -0.035962  -0.000087   0.011132   0.001492   0.079432  -0.000110
    16  H    0.002379   0.000013  -0.000671  -0.000310  -0.013805   0.002758
              13         14         15         16
     1  C   -0.024761  -0.008173  -0.001127   0.000207
     2  C    0.010264  -0.016856  -0.001124   0.000135
     3  H   -0.011963   0.006402  -0.000004   0.000002
     4  C    0.000087   0.007386  -0.009506  -0.000528
     5  H   -0.000255   0.000066   0.000430  -0.000027
     6  H   -0.000379   0.001217  -0.000011   0.000002
     7  C    0.002395  -0.037596  -0.035962   0.002379
     8  H    0.000063   0.000255  -0.000087   0.000013
     9  H   -0.000056  -0.000266   0.011132  -0.000671
    10  C    0.393780   0.385460   0.001492  -0.000310
    11  O   -0.000081   0.001243   0.079432  -0.013805
    12  H    0.000136  -0.000697  -0.000110   0.002758
    13  H    0.616285  -0.038873   0.000006  -0.000008
    14  H   -0.038873   0.639217  -0.000125   0.000037
    15  O    0.000006  -0.000125   7.835678   0.303759
    16  H   -0.000008   0.000037   0.303759   0.514040
          Atomic-Atomic Spin Densities.
               1          2          3          4          5          6
     1  C    0.680946  -0.010868   0.005431  -0.007601  -0.006243  -0.011080
     2  C   -0.010868  -0.014232  -0.000290  -0.005418  -0.000526   0.012921
     3  H    0.005431  -0.000290  -0.026986  -0.000360  -0.000291   0.000326
     4  C   -0.007601  -0.005418  -0.000360  -0.022562   0.005261  -0.006954
     5  H   -0.006243  -0.000526  -0.000291   0.005261   0.012094  -0.004246
     6  H   -0.011080   0.012921   0.000326  -0.006954  -0.004246   0.025390
     7  C   -0.080721  -0.011547  -0.001679  -0.018061   0.001274  -0.001612
     8  H    0.000426   0.000814   0.000023   0.001687  -0.000111   0.000456
     9  H   -0.001287  -0.006949  -0.000028   0.010597   0.000982  -0.000578
    10  C    0.007795   0.003401  -0.001327   0.011467   0.000200   0.000199
    11  O    0.002522   0.000601   0.000043   0.000778  -0.000054  -0.000000
    12  H    0.001381   0.000464   0.000026   0.002462  -0.000047   0.000056
    13  H   -0.002671  -0.000254  -0.000146  -0.000140   0.000043  -0.000061
    14  H   -0.000014   0.002759   0.000412   0.000846  -0.000269   0.000978
    15  O   -0.001261  -0.000439  -0.000018   0.000241   0.000164  -0.000015
    16  H    0.000181   0.000037   0.000004   0.000036  -0.000021   0.000002
               7          8          9         10         11         12
     1  C   -0.080721   0.000426  -0.001287   0.007795   0.002522   0.001381
     2  C   -0.011547   0.000814  -0.006949   0.003401   0.000601   0.000464
     3  H   -0.001679   0.000023  -0.000028  -0.001327   0.000043   0.000026
     4  C   -0.018061   0.001687   0.010597   0.011467   0.000778   0.002462
     5  H    0.001274  -0.000111   0.000982   0.000200  -0.000054  -0.000047
     6  H   -0.001612   0.000456  -0.000578   0.000199  -0.000000   0.000056
     7  C    0.905144  -0.002529  -0.007908  -0.031073  -0.012528  -0.006812
     8  H   -0.002529   0.000204  -0.001367   0.000000   0.000064   0.000634
     9  H   -0.007908  -0.001367   0.022329  -0.000554  -0.000781  -0.001105
    10  C   -0.031073   0.000000  -0.000554  -0.296713   0.004152   0.001490
    11  O   -0.012528   0.000064  -0.000781   0.004152  -0.022719   0.002718
    12  H   -0.006812   0.000634  -0.001105   0.001490   0.002718  -0.027732
    13  H    0.006507  -0.000026   0.000020   0.000467  -0.000229  -0.000210
    14  H   -0.042133   0.000668  -0.000372   0.009503   0.000323   0.001942
    15  O   -0.030314  -0.000066   0.001646  -0.000191  -0.030951  -0.002184
    16  H    0.002550   0.000007  -0.000226   0.000043   0.003637   0.000424
              13         14         15         16
     1  C   -0.002671  -0.000014  -0.001261   0.000181
     2  C   -0.000254   0.002759  -0.000439   0.000037
     3  H   -0.000146   0.000412  -0.000018   0.000004
     4  C   -0.000140   0.000846   0.000241   0.000036
     5  H    0.000043  -0.000269   0.000164  -0.000021
     6  H   -0.000061   0.000978  -0.000015   0.000002
     7  C    0.006507  -0.042133  -0.030314   0.002550
     8  H   -0.000026   0.000668  -0.000066   0.000007
     9  H    0.000020  -0.000372   0.001646  -0.000226
    10  C    0.000467   0.009503  -0.000191   0.000043
    11  O   -0.000229   0.000323  -0.030951   0.003637
    12  H   -0.000210   0.001942  -0.002184   0.000424
    13  H    0.014683  -0.005033   0.000027  -0.000010
    14  H   -0.005033   0.064762  -0.000105   0.000024
    15  O    0.000027  -0.000105   0.185629  -0.003699
    16  H   -0.000010   0.000024  -0.003699  -0.001331
 Mulliken charges and spin densities:
               1          2
     1  C   -0.117339   0.576935
     2  C    0.009191  -0.029527
     3  H    0.043842  -0.024861
     4  C   -0.021092  -0.027722
     5  H    0.049063   0.008212
     6  H    0.049178   0.015782
     7  C    0.026412   0.668556
     8  H    0.032341   0.000884
     9  H    0.057786   0.014420
    10  C   -0.051365  -0.291141
    11  O   -0.226609  -0.052424
    12  H    0.025788  -0.026495
    13  H    0.053360   0.012967
    14  H    0.061303   0.034290
    15  O   -0.183874   0.118466
    16  H    0.192017   0.001658
 Sum of Mulliken charges =  -0.00000   1.00000
 Mulliken charges and spin densities with hydrogens summed into heavy atoms:
               1          2
     1  C   -0.073497   0.552074
     2  C    0.107431  -0.005532
     4  C    0.069034  -0.012418
     7  C    0.052200   0.642061
    10  C    0.063298  -0.243885
    11  O   -0.226609  -0.052424
    15  O    0.008144   0.120124
 APT charges:
               1
     1  C   -0.082197
     2  C    0.032952
     3  H    0.049189
     4  C   -0.025506
     5  H   -0.007217
     6  H   -0.000721
     7  C    0.426451
     8  H   -0.016878
     9  H    0.014910
    10  C   -0.017027
    11  O   -0.100728
    12  H   -0.058790
    13  H    0.024639
    14  H    0.020429
    15  O   -0.521346
    16  H    0.261841
 Sum of APT charges =  -0.00000
 APT charges with hydrogens summed into heavy atoms:
               1
     1  C   -0.033007
     2  C    0.025013
     4  C   -0.027474
     7  C    0.367661
    10  C    0.028041
    11  O   -0.100728
    15  O   -0.259505
 Electronic spatial extent (au):  <R**2>=            789.1858
 Charge=             -0.0000 electrons
 Dipole moment (field-independent basis, Debye):
    X=             -0.1394    Y=             -0.3255    Z=              1.2695  Tot=              1.3180
 Quadrupole moment (field-independent basis, Debye-Ang):
   XX=            -39.5026   YY=            -41.4737   ZZ=            -41.5055
   XY=              3.1637   XZ=             -1.5737   YZ=             -0.3471
 Traceless Quadrupole moment (field-independent basis, Debye-Ang):
   XX=              1.3246   YY=             -0.6465   ZZ=             -0.6782
   XY=              3.1637   XZ=             -1.5737   YZ=             -0.3471
 Octapole moment (field-independent basis, Debye-Ang**2):
  XXX=            -48.3354  YYY=             -2.8834  ZZZ=             -2.4643  XYY=             -4.6041
  XXY=            -10.2032  XXZ=              1.1005  XZZ=             -2.3817  YZZ=             -1.1774
  YYZ=             -1.2704  XYZ=              0.3954
 Hexadecapole moment (field-independent basis, Debye-Ang**3):
 XXXX=           -512.3407 YYYY=           -249.3220 ZZZZ=           -152.6572 XXXY=             46.1116
 XXXZ=              6.9172 YYYX=             -0.9919 YYYZ=              1.1350 ZZZX=              3.0673
 ZZZY=              0.3333 XXYY=           -132.7247 XXZZ=           -123.8989 YYZZ=            -69.5948
 XXYZ=              3.4642 YYXZ=              1.5207 ZZXY=              1.2050
 N-N= 3.127081254402D+02 E-N=-1.432639025006D+03  KE= 3.425896138237D+02
  Exact polarizability:      83.122      -3.631      61.671      -5.028      -3.026      58.409
 Approx polarizability:      82.627      -5.056      66.800      -3.709      -4.279      65.857
                          Isotropic Fermi Contact Couplings
        Atom                 a.u.       MegaHertz       Gauss      10(-4) cm-1
     1  C(13)              0.10783     121.21677      43.25316      40.43356
     2  C(13)             -0.00349      -3.92402      -1.40019      -1.30891
     3  H(1)              -0.00662     -29.60178     -10.56265      -9.87409
     4  C(13)             -0.01714     -19.27045      -6.87618      -6.42793
     5  H(1)               0.00358      16.02208       5.71708       5.34439
     6  H(1)               0.00864      38.63901      13.78736      12.88858
     7  C(13)              0.28241     317.48722     113.28734     105.90234
     8  H(1)               0.00021       0.95153       0.33953       0.31740
     9  H(1)               0.00708      31.66015      11.29713      10.56069
    10  C(13)             -0.04253     -47.81019     -17.05987     -15.94776
    11  O(17)              0.12689     -76.92038     -27.44711     -25.65788
    12  H(1)              -0.00788     -35.22181     -12.56802     -11.74873
    13  H(1)               0.00332      14.84160       5.29585       4.95063
    14  H(1)               0.01747      78.10900      27.87123      26.05436
    15  O(17)              0.11854     -71.85619     -25.64008     -23.96865
    16  H(1)              -0.00187      -8.33996      -2.97591      -2.78191
 --------------------------------------------------------
       Center         ----  Spin Dipole Couplings  ----
                      3XX-RR        3YY-RR        3ZZ-RR
 --------------------------------------------------------
     1   Atom        0.548763     -0.273819     -0.274944
     2   Atom       -0.002383     -0.004259      0.006643
     3   Atom        0.000593     -0.031317      0.030724
     4   Atom       -0.004040      0.008357     -0.004317
     5   Atom       -0.001888      0.005240     -0.003351
     6   Atom       -0.001200      0.007868     -0.006668
     7   Atom        0.304519      0.058804     -0.363323
     8   Atom       -0.000711      0.003156     -0.002445
     9   Atom       -0.002350      0.010009     -0.007659
    10   Atom       -0.247064      0.119030      0.128034
    11   Atom       -0.008161     -0.056752      0.064913
    12   Atom       -0.013084     -0.019210      0.032294
    13   Atom       -0.001347     -0.006732      0.008079
    14   Atom        0.006570      0.001791     -0.008360
    15   Atom        0.234241     -0.048188     -0.186053
    16   Atom        0.015208      0.002948     -0.018156
 --------------------------------------------------------
                        XY            XZ            YZ
 --------------------------------------------------------
     1   Atom        0.161512      0.137600      0.033523
     2   Atom        0.007394     -0.007981     -0.002006
     3   Atom        0.000757     -0.011643      0.026075
     4   Atom        0.002788     -0.008307     -0.002113
     5   Atom       -0.003291     -0.000687     -0.006289
     6   Atom        0.004373     -0.002254      0.002023
     7   Atom       -0.559092     -0.158966      0.114971
     8   Atom        0.006258      0.002615      0.007709
     9   Atom       -0.000143     -0.001724     -0.000237
    10   Atom        0.016542     -0.002186     -0.012309
    11   Atom        0.157267     -0.025160     -0.017955
    12   Atom       -0.008030     -0.033836     -0.027966
    13   Atom       -0.003001     -0.002575     -0.009796
    14   Atom       -0.004705      0.002914     -0.013353
    15   Atom       -0.328104      0.241488     -0.153472
    16   Atom        0.018001      0.002351     -0.005648
 --------------------------------------------------------


 ---------------------------------------------------------------------------------
              Anisotropic Spin Dipole Couplings in Principal Axis System
 ---------------------------------------------------------------------------------

       Atom             a.u.   MegaHertz   Gauss  10(-4) cm-1        Axes

              Baa    -0.3090   -41.471   -14.798   -13.833 -0.0731  0.8427 -0.5333
     1 C(13)  Bbb    -0.2931   -39.331   -14.034   -13.119 -0.2328  0.5056  0.8308
              Bcc     0.6021    80.802    28.832    26.953  0.9698  0.1849  0.1592
 
              Baa    -0.0117    -1.573    -0.561    -0.525  0.7210 -0.6491  0.2424
     2 C(13)  Bbb    -0.0014    -0.193    -0.069    -0.064  0.4226  0.6893  0.5885
              Bcc     0.0132     1.766     0.630     0.589 -0.5491 -0.3219  0.7713
 
              Baa    -0.0414   -22.070    -7.875    -7.362 -0.1150  0.9280 -0.3543
     3 H(1)   Bbb    -0.0016    -0.840    -0.300    -0.280  0.9624  0.1924  0.1916
              Bcc     0.0429    22.910     8.175     7.642 -0.2460  0.3189  0.9153
 
              Baa    -0.0125    -1.677    -0.598    -0.559  0.7043 -0.0223  0.7095
     4 C(13)  Bbb     0.0022     0.293     0.105     0.098 -0.6113  0.4891  0.6222
              Bcc     0.0103     1.384     0.494     0.462  0.3609  0.8720 -0.3308
 
              Baa    -0.0075    -4.027    -1.437    -1.343  0.3777  0.4851  0.7887
     5 H(1)   Bbb    -0.0016    -0.872    -0.311    -0.291  0.8960  0.0233 -0.4435
              Bcc     0.0092     4.899     1.748     1.634 -0.2335  0.8742 -0.4258
 
              Baa    -0.0083    -4.407    -1.572    -1.470  0.4197 -0.2241  0.8795
     6 H(1)   Bbb    -0.0014    -0.769    -0.275    -0.257  0.8333 -0.2890 -0.4713
              Bcc     0.0097     5.176     1.847     1.727  0.3598  0.9307  0.0655
 
              Baa    -0.4040   -54.218   -19.346   -18.085  0.4785  0.3816  0.7908
     7 C(13)  Bbb    -0.3834   -51.451   -18.359   -17.162  0.4236  0.6886 -0.5886
              Bcc     0.7875   105.669    37.705    35.247  0.7691 -0.6166 -0.1679
 
              Baa    -0.0083    -4.413    -1.575    -1.472  0.2793 -0.6374  0.7181
     8 H(1)   Bbb    -0.0038    -2.006    -0.716    -0.669  0.8406 -0.1992 -0.5037
              Bcc     0.0120     6.420     2.291     2.141  0.4641  0.7443  0.4802
 
              Baa    -0.0082    -4.361    -1.556    -1.455  0.2841  0.0147  0.9587
     9 H(1)   Bbb    -0.0018    -0.982    -0.350    -0.327  0.9587  0.0059 -0.2842
              Bcc     0.0100     5.343     1.906     1.782 -0.0098  0.9999 -0.0124
 
              Baa    -0.2478   -33.255   -11.866   -11.093  0.9990 -0.0449  0.0043
    10 C(13)  Bbb     0.1108    14.874     5.307     4.961  0.0339  0.8106  0.5847
              Bcc     0.1370    18.381     6.559     6.131 -0.0298 -0.5839  0.8113
 
              Baa    -0.1916    13.865     4.948     4.625 -0.6516  0.7584 -0.0108
    11 O(17)  Bbb     0.0522    -3.778    -1.348    -1.260  0.2833  0.2566  0.9241
              Bcc     0.1394   -10.087    -3.599    -3.365  0.7036  0.5991 -0.3821
 
              Baa    -0.0480   -25.601    -9.135    -8.540  0.6086  0.6338  0.4773
    12 H(1)   Bbb    -0.0085    -4.540    -1.620    -1.514 -0.6892  0.7204 -0.0778
              Bcc     0.0565    30.141    10.755    10.054 -0.3932 -0.2816  0.8753
 
              Baa    -0.0129    -6.874    -2.453    -2.293  0.3162  0.8440  0.4332
    13 H(1)   Bbb    -0.0001    -0.073    -0.026    -0.024  0.9461 -0.3143 -0.0782
              Bcc     0.0130     6.948     2.479     2.317 -0.0701 -0.4346  0.8979
 
              Baa    -0.0176    -9.376    -3.346    -3.127  0.0118  0.5696  0.8218
    14 H(1)   Bbb     0.0028     1.511     0.539     0.504  0.8281  0.4551 -0.3273
              Bcc     0.0147     7.865     2.806     2.623 -0.5604  0.6845 -0.4663
 
              Baa    -0.2963    21.443     7.651     7.153 -0.3689  0.0847  0.9256
    15 O(17)  Bbb    -0.2636    19.075     6.806     6.363  0.5040  0.8550  0.1227
              Bcc     0.5600   -40.518   -14.458   -13.515  0.7810 -0.5117  0.3581
 
              Baa    -0.0213   -11.374    -4.058    -3.794 -0.2500  0.3916  0.8855
    16 H(1)   Bbb    -0.0068    -3.638    -1.298    -1.214 -0.5305  0.7097 -0.4636
              Bcc     0.0281    15.012     5.357     5.007  0.8100  0.5857 -0.0303
 

 ---------------------------------------------------------------------------------

 No NMR shielding tensors so no spin-rotation constants.
 Leave Link  601 at Wed May 14 13:34:24 2025, MaxMem=  3758096384 cpu:               0.8 elap:               0.2
 (Enter /gpfs/fs1/soft/bebop/software/custom-built/gaussian/16-c.02/g16/l701.exe)
 SCFChk:  SCF convergence  7.82D-09 required  1.00D-08
 ... and contract with generalized density number  0.
 Compute integral second derivatives.
 R6Disp: Adding Grimme-D2 dispersion energy 2nd derivatives to the Hessian.
 Entering OneElI...
 Calculate overlap and kinetic energy integrals
    NBasis = 150  MinDer = 2  MaxDer = 2
 Requested accuracy = 0.1000D-12
 PrmmSu-InSpLW:  IPartL=    0 NPrtUS=    6 NPrtUL=    1 DoSpLW=F IThBeg=    0 IThEnd=    5 NThAct=    6.
 PrSmSu:  IncTry=   512 NBBP=           2410 NTPThr=   100 NPartT=    6 Incr=           4 LDynOK=F GPUOK=F.
 PrsmSu:  NPrtUS=   6 ThrOK=T IAlg=2 LenDen=           0 ISkipM=0 DoSpLW=F IThBeg=    0 IThEnd=    5.
 Prism:   IPart=     0 DynPar=F LinDyn=F Incr=           4.
 PRISM was handed   626257939 working-precision words and  2410 shell-pairs
 PRISM was handed   626257939 working-precision words and  2410 shell-pairs
 PRISM was handed   626257939 working-precision words and  2410 shell-pairs
 PRISM was handed   626257939 working-precision words and  2410 shell-pairs
 PRISM was handed   626257939 working-precision words and  2410 shell-pairs
 PRISM was handed   626257939 working-precision words and  2410 shell-pairs
 IPart=  3 NShTot=         398 NBatch=          33 AvBLen=        12.1
 IPart=  2 NShTot=         406 NBatch=          35 AvBLen=        11.6
 IPart=  5 NShTot=         382 NBatch=          29 AvBLen=        13.2
 IPart=  4 NShTot=         389 NBatch=          30 AvBLen=        13.0
 IPart=  1 NShTot=         413 NBatch=          37 AvBLen=        11.2
 IPart=  0 NShTot=         422 NBatch=          41 AvBLen=        10.3
 PrSmSu:  NxtVal=             25.
 Entering OneElI...
 Calculate potential energy integrals
    NBasis = 150  MinDer = 2  MaxDer = 2
 Requested accuracy = 0.1000D-12
 PrmmSu-InSpLW:  IPartL=    0 NPrtUS=    6 NPrtUL=    1 DoSpLW=F IThBeg=    0 IThEnd=    5 NThAct=    6.
 PrSmSu:  IncTry=   512 NBBP=          37488 NTPThr=   100 NPartT=    6 Incr=          62 LDynOK=F GPUOK=F.
 PrsmSu:  NPrtUS=   6 ThrOK=T IAlg=2 LenDen=           0 ISkipM=0 DoSpLW=F IThBeg=    0 IThEnd=    5.
 Prism:   IPart=     0 DynPar=F LinDyn=F Incr=          62.
 PRISM was handed   626270006 working-precision words and  2343 shell-pairs
 PRISM was handed   626270006 working-precision words and  2343 shell-pairs
 PRISM was handed   626270006 working-precision words and  2343 shell-pairs
 PRISM was handed   626270006 working-precision words and  2343 shell-pairs
 PRISM was handed   626270006 working-precision words and  2343 shell-pairs
 PRISM was handed   626270006 working-precision words and  2343 shell-pairs
 IPart=  5 NShTot=        5968 NBatch=         373 AvBLen=        16.0
 IPart=  4 NShTot=        6080 NBatch=         380 AvBLen=        16.0
 IPart=  2 NShTot=        6288 NBatch=         393 AvBLen=        16.0
 IPart=  3 NShTot=        6160 NBatch=         385 AvBLen=        16.0
 IPart=  1 NShTot=        6416 NBatch=         401 AvBLen=        16.0
 IPart=  0 NShTot=        6576 NBatch=         411 AvBLen=        16.0
 PrSmSu:  NxtVal=            373.
   1 Symmetry operations used in ECPInt.
 ECPInt:  NShTT=    2415 NPrTT=    8503 LenC2=    2408 LenP2D=    7029.
 LDataN:  DoStor=F MaxTD1= 6 Len=  172
 LDataN:  DoStor=T MaxTD1= 6 Len=  172
 ECPSu:  NPrtUS=   6 ThrOK=T ISkipM=0 DoSpLW=F IThBeg=    0 IThEnd=    5.
 Polarizability after L701:
                1             2             3 
      1  0.831218D+02
      2 -0.363138D+01  0.616709D+02
      3 -0.502805D+01 -0.302585D+01  0.584092D+02
 Dipole Derivatives after L701:
                 1             2             3             4             5 
      1  -0.406986D+00 -0.933598D-02  0.519107D-01  0.869274D-01  0.618833D-01
      2  -0.321305D-01  0.867437D-01  0.568639D-01  0.152998D-01 -0.150304D-01
      3   0.792039D-01 -0.588859D-02  0.736515D-01  0.299492D-01  0.940126D-02
                 6             7             8             9            10 
      1   0.880639D-01  0.191088D+00  0.452495D-01  0.554803D-01  0.144795D-01
      2  -0.127520D-01  0.226993D-01  0.168836D-01 -0.349349D-01  0.163827D-01
      3   0.269578D-01 -0.284191D-01 -0.469955D-01 -0.604040D-01  0.739167D-01
                11            12            13            14            15 
      1  -0.519908D-01  0.601500D-02  0.370803D-01 -0.877160D-05 -0.127463D-01
      2  -0.134042D+00  0.696676D-01  0.740587D-01  0.939698D-02  0.475377D-01
      3  -0.278546D-01  0.430444D-01 -0.569377D-01  0.440841D-01 -0.681291D-01
                16            17            18            19            20 
      1  -0.207602D-01 -0.974236D-01 -0.632070D-01  0.414353D+00 -0.270736D-02
      2  -0.997219D-01 -0.488185D-01 -0.529411D-01  0.567401D-01  0.391892D+00
      3  -0.629778D-02  0.306103D-02  0.674157D-01  0.618510D-01  0.865199D-01
                21            22            23            24            25 
      1  -0.856914D-01  0.688885D-02 -0.106600D-01 -0.343809D-01  0.165122D-01
      2  -0.942616D-02 -0.407653D-01  0.569161D-01 -0.334338D-01  0.775865D-01
      3   0.473109D+00 -0.656060D-01  0.598953D-02 -0.114438D+00  0.158368D-02
                26            27            28            29            30 
      1   0.867013D-01 -0.448737D-03 -0.409368D-01 -0.387753D-01 -0.138550D-01
      2  -0.430883D-01  0.200995D-01  0.452437D-01  0.376688D-03 -0.151926D-01
      3  -0.240403D-01  0.713050D-01 -0.914753D-02  0.481666D-01 -0.105205D-01
                31            32            33            34            35 
      1   0.396173D+00 -0.349625D+00  0.169172D+00 -0.400774D-01 -0.545092D-01
      2  -0.164845D+00 -0.337378D+00  0.912624D-02 -0.704108D-01 -0.198124D-02
      3   0.602576D-01 -0.122316D+00 -0.360981D+00  0.101533D+00  0.147953D-01
                36            37            38            39            40 
      1   0.668063D-02  0.909318D-01  0.280871D-01  0.714744D-02  0.751311D-01
      2   0.551704D-01  0.550506D-01 -0.796113D-01 -0.317207D-01  0.461186D-02
      3  -0.134311D+00  0.138406D-02 -0.213186D-02  0.625950D-01 -0.320477D-01
                41            42            43            44            45 
      1   0.512987D-03 -0.457489D-01 -0.111710D+01  0.333123D+00 -0.145600D+00
      2   0.323705D-01 -0.160881D-01  0.393170D-01 -0.105037D+00 -0.910617D-01
      3  -0.604181D-01 -0.462149D-01 -0.223681D+00  0.228590D-01 -0.341904D+00
                46            47            48 
      1   0.296291D+00  0.594792D-01  0.172090D-01
      2   0.883569D-03  0.170407D+00  0.390858D-01
      3   0.124583D-01  0.547685D-01  0.318825D+00
 Hessian after L701:
                1             2             3             4             5 
      1  0.193954D+02
      2  0.968820D+00  0.106976D+02
      3  0.179475D+01  0.256202D+01  0.131717D+02
      4 -0.578692D+01 -0.162428D+01 -0.286324D+00  0.146124D+02
      5 -0.198892D+01 -0.915144D+00  0.960650D+00  0.550700D+00  0.140125D+02
      6 -0.256712D+00  0.814610D+00 -0.627899D+01  0.206564D+01 -0.474513D+00
      7 -0.427327D+01 -0.163144D+00 -0.470040D+00  0.832666D-01  0.801019D-01
      8 -0.932482D-01 -0.409230D+01  0.810265D+00  0.439402D-01 -0.615011D-01
      9 -0.280695D+00  0.841778D+00 -0.197011D+01  0.162870D-01 -0.115901D+00
     10  0.342323D+00 -0.132315D-01  0.254382D-01 -0.328336D+01  0.155866D+00
     11  0.997846D-01 -0.437788D-01 -0.178855D+00  0.506498D-03 -0.573286D+01
     12  0.668773D-01 -0.107006D+00 -0.616390D-01 -0.302218D+01 -0.171672D+00
     13  0.276183D-01 -0.634583D-01  0.296409D-01 -0.400204D+01 -0.289517D+00
     14 -0.159353D-01 -0.162399D-01 -0.546379D-02 -0.427395D+00 -0.411490D+01
     15  0.573316D-01 -0.851768D-01  0.458729D-01  0.927407D+00 -0.626907D+00
     16  0.576628D-01  0.154099D+00  0.361451D-01 -0.285856D+01  0.100146D+01
     17  0.922083D-01  0.606603D-01  0.253860D-02  0.104005D+01 -0.331730D+01
     18  0.236499D-01  0.299841D-01 -0.165207D-01  0.342668D+00  0.275368D+00
     19  0.365599D+00 -0.127405D+00  0.612625D-02  0.356834D+00 -0.969968D-01
     20 -0.191196D+00  0.206401D-01  0.164650D+00 -0.240259D-01 -0.101121D+00
     21  0.288276D-01  0.859892D-01 -0.260080D+00 -0.239176D-01  0.116605D+00
     22 -0.204629D-01  0.230251D-01  0.289424D-01 -0.409270D-01 -0.613160D-02
     23  0.244639D-01 -0.276960D-01 -0.133035D-01 -0.136400D-01 -0.153430D-01
     24  0.187530D-01 -0.149091D-01  0.777163D-02 -0.153634D-01  0.105786D+00
     25  0.663415D-01 -0.868035D-01 -0.535378D-01  0.642704D-01 -0.358960D-01
     26 -0.100288D+00  0.309539D-01  0.518888D-01 -0.643050D-01  0.395729D-01
     27 -0.412192D-01  0.349975D-01 -0.200930D-01  0.488531D-01 -0.329483D-01
     28 -0.109855D+02  0.763870D+00 -0.106872D+01  0.228449D+00  0.335656D-01
     29  0.109445D+01 -0.529536D+01 -0.436291D+01 -0.141472D+00  0.143685D+00
     30 -0.137944D+01 -0.411997D+01 -0.439618D+01  0.474689D-01  0.155399D-01
     31  0.624029D+00  0.143841D+00 -0.380491D-01  0.369599D+00  0.421112D+00
     32  0.686518D-01 -0.310100D+00  0.205191D-01  0.454756D+00 -0.632049D-01
     33  0.162870D-01  0.197303D-01 -0.343625D+00  0.702803D-01  0.348352D-01
     34  0.388549D-01  0.146567D-01 -0.740548D-01  0.611401D-01  0.104727D+00
     35  0.168977D-01 -0.316171D-01 -0.113974D-01  0.115680D+00  0.201121D-01
     36 -0.897588D-01 -0.188297D-01  0.541031D-01 -0.157249D+00 -0.124385D+00
     37  0.370035D-01  0.565190D-01 -0.366800D-01 -0.553462D-01 -0.254088D-01
     38  0.687614D-01  0.321288D-01 -0.102098D-01 -0.260859D-01  0.280116D+00
     39 -0.241958D-01  0.782466D-01  0.127833D-01  0.441429D-02 -0.402437D-01
     40 -0.346322D-01 -0.375282D-01  0.109857D+00  0.305195D-01  0.258723D-01
     41 -0.305635D-01 -0.242850D-02  0.896087D-02  0.665957D-02 -0.582564D-01
     42  0.973123D-01 -0.124821D+00  0.160968D+00  0.276931D-02  0.863748D-01
     43  0.110079D+00 -0.175398D-01 -0.783199D-03  0.189425D+00  0.583921D-01
     44 -0.326621D-01 -0.106018D+00  0.131612D-02  0.820704D-01 -0.114479D+00
     45 -0.244034D-01  0.519376D-02 -0.979666D-01 -0.151089D-01 -0.716202D-02
     46  0.358197D-01  0.855473D-02 -0.271305D-02  0.312249D-01  0.110747D-01
     47  0.187737D-01 -0.130307D-02 -0.667901D-03  0.268380D-01 -0.183219D-02
     48 -0.736038D-02 -0.183063D-02 -0.799560D-02 -0.564819D-02 -0.142708D-02
                6             7             8             9            10 
      6  0.158957D+02
      7  0.493666D-01  0.401721D+01
      8 -0.137306D+00  0.118500D+00  0.421747D+01
      9  0.506158D-01  0.591492D+00 -0.977813D+00  0.164754D+01
     10 -0.292512D+01 -0.454928D-02 -0.602799D-01 -0.888665D-01  0.147618D+02
     11  0.854517D-02 -0.569503D-01  0.169237D-01  0.996542D-01 -0.188429D+01
     12 -0.268609D+01 -0.703615D-01  0.889374D-01  0.827547D-01  0.157446D+01
     13  0.749874D+00  0.834450D-02  0.404645D-01  0.409387D-04 -0.183356D-01
     14 -0.764703D+00  0.527724D-01 -0.729564D-01 -0.134260D-01  0.248055D-01
     15 -0.264639D+01  0.102648D-01 -0.193372D-01  0.164022D-01 -0.467465D-01
     16  0.418521D+00 -0.197367D-01  0.181090D-01  0.216403D-01  0.561318D-01
     17  0.349452D+00  0.195770D-02  0.495567D-01  0.598952D-01  0.456456D-01
     18 -0.402278D+01  0.244022D-02  0.389190D-01  0.151245D-01  0.509458D-01
     19 -0.458931D-01  0.132797D-01 -0.185744D-01 -0.711925D-01 -0.522507D+01
     20  0.235722D-01 -0.115974D-01 -0.220774D-01  0.229940D-01  0.278113D+01
     21  0.713382D-01 -0.536747D-01  0.187711D-01  0.542110D-01 -0.521817D-01
     22  0.785733D-01 -0.240137D-02  0.285171D-02  0.579371D-02 -0.393750D+01
     23  0.771785D-01  0.431001D-03 -0.611535D-03  0.140345D-02  0.188794D+00
     24  0.135843D+00 -0.892522D-03  0.289509D-02  0.991496D-02  0.934541D+00
     25 -0.208856D-01  0.165451D-02 -0.454245D-02 -0.110123D-01 -0.326535D+01
     26  0.126828D-01 -0.413142D-02  0.435848D-02  0.121090D-01 -0.130242D+01
     27 -0.362258D-01  0.890494D-04 -0.647576D-03 -0.648889D-03  0.168262D+00
     28 -0.284122D-01  0.907227D-01 -0.195709D-02 -0.532481D-01  0.122137D+00
     29  0.106414D+00 -0.100054D-02  0.645215D-01  0.228378D-01 -0.144522D+00
     30  0.415186D-01 -0.684274D-02  0.925990D-01 -0.222889D-01 -0.497109D-01
     31  0.558299D-01  0.546345D-01 -0.178268D-01 -0.914467D-01  0.221907D+00
     32  0.357273D-01  0.262362D-02 -0.285602D-01 -0.371159D-02  0.437164D+00
     33 -0.339494D+00 -0.318343D-01  0.410462D-02 -0.169861D-02 -0.115396D+00
     34 -0.123638D+00  0.790649D-03 -0.170360D-02 -0.665702D-02  0.573371D-01
     35 -0.110320D+00  0.831342D-03 -0.210326D-02 -0.432539D-02 -0.259665D+00
     36  0.807781D-01 -0.445709D-02  0.396436D-02  0.137247D-01  0.190495D+00
     37  0.103644D-01  0.246001D-01 -0.912873D-02  0.862137D-02 -0.137386D-01
     38 -0.520560D-01 -0.145906D-01 -0.349044D-01  0.608209D-01 -0.292827D-01
     39 -0.539103D-01  0.170935D-01  0.696812D-01 -0.499214D-01 -0.547643D-02
     40 -0.307209D-01 -0.207841D-01 -0.624195D-03 -0.156998D-02 -0.188770D-01
     41  0.112388D+00  0.103254D-02 -0.277205D-01 -0.111423D-01 -0.707707D-01
     42 -0.675793D-01 -0.207968D-01  0.206523D-03  0.154684D+00  0.867237D-01
     43  0.243387D-02  0.215164D-01 -0.131319D-01 -0.298142D-01  0.184684D+00
     44 -0.229732D-02 -0.995346D-02 -0.702982D-02  0.122301D-01  0.967327D-01
     45 -0.135153D+00 -0.101611D-01  0.395598D-02 -0.221361D-02  0.253041D+00
     46  0.776859D-03  0.472270D-02 -0.284819D-02 -0.937266D-02  0.204176D-01
     47  0.624941D-03  0.311679D-02 -0.306229D-02 -0.740390D-02  0.343195D-01
     48 -0.915873D-02 -0.168529D-02  0.803753D-03  0.190677D-02 -0.409569D-03
               11            12            13            14            15 
     11  0.141803D+02
     12 -0.815937D-01  0.166167D+02
     13 -0.112077D-02  0.615849D-01  0.406081D+01
     14  0.241623D-01 -0.952120D-01  0.307608D+00  0.395946D+01
     15 -0.110869D+00  0.904938D-01 -0.887411D+00  0.111995D+01  0.238193D+01
     16  0.251999D-01 -0.194016D-01  0.138177D-02 -0.215549D-01 -0.486119D-01
     17  0.192857D-01 -0.302896D-02  0.469789D-02  0.680018D-01 -0.370908D-02
     18  0.353142D-01 -0.232779D-01 -0.711397D-01 -0.328076D-01  0.891794D-02
     19  0.283127D+01  0.650259D-01 -0.352796D-01 -0.184338D-01  0.150398D-01
     20 -0.100918D+01  0.892749D-01 -0.229012D-01  0.295789D-02 -0.209994D-01
     21 -0.688100D-01 -0.671188D+01  0.285046D-01 -0.838837D-02  0.876461D-02
     22  0.104294D+00  0.871311D+00 -0.278298D-01 -0.690511D-03  0.697925D-02
     23 -0.432562D+01  0.366711D+00 -0.530939D-03 -0.274256D-01 -0.268040D-02
     24  0.208484D+00 -0.242504D+01  0.317030D-02 -0.268562D-01  0.141263D+00
     25 -0.109023D+01  0.260082D+00 -0.186538D-01  0.115499D-01  0.605134D-01
     26 -0.327019D+01 -0.315023D+00  0.223683D-01  0.312902D-01 -0.149986D-01
     27 -0.181028D+00 -0.438703D+01  0.748281D-01 -0.135445D-01 -0.662043D-01
     28 -0.956654D-01 -0.273797D-01 -0.227673D-01 -0.554473D-01  0.399812D-01
     29 -0.190352D+00 -0.880637D-02 -0.688155D-01  0.926969D-01 -0.111982D+00
     30  0.480612D-01 -0.568081D-01  0.440773D-01 -0.905992D-01  0.250270D-01
     31  0.380174D+00 -0.160210D+00  0.555079D-02  0.102584D+00 -0.809426D-01
     32  0.538901D+00 -0.822986D-02  0.617746D-01  0.537222D-01 -0.782464D-01
     33  0.433989D-02 -0.389897D+00 -0.291454D-01 -0.398416D-01 -0.240920D-01
     34 -0.266218D+00  0.164753D+00 -0.297314D-02  0.222417D-02 -0.465343D-02
     35 -0.837117D-01  0.230348D+00 -0.211871D-02  0.138668D-02 -0.552865D-02
     36  0.266180D+00  0.109386D+00  0.313953D-02 -0.644816D-02  0.118649D-01
     37 -0.169970D-01 -0.511650D-02 -0.814140D-04 -0.154021D-02  0.413285D-03
     38  0.472338D-01  0.110217D-01 -0.609377D-02  0.429488D-02 -0.118623D-01
     39  0.141891D-01 -0.157689D-01 -0.720243D-03  0.252764D-02 -0.181285D-02
     40 -0.857834D-01  0.493428D-01 -0.201542D-02 -0.204544D-02  0.324908D-02
     41  0.370128D-01 -0.632724D-01 -0.128774D-02  0.104295D-02 -0.409912D-02
     42 -0.122958D+00 -0.217791D-01  0.866383D-02 -0.128343D-01  0.175575D-01
     43  0.415866D-01  0.184825D+00  0.270374D-01  0.364542D-01 -0.445306D-01
     44 -0.209047D+00  0.610149D-01  0.190521D-01 -0.111580D-01 -0.155175D-01
     45  0.583241D-01 -0.108119D+00 -0.148876D-01 -0.108371D-01 -0.109053D-01
     46  0.144385D-01  0.638471D-02 -0.764805D-03  0.504466D-02 -0.828360D-02
[...]
   zz         0.649057D+02      0.961804D+01      0.107015D+02

 ----------------------------------------------------------------------

 Dipole orientation:
     6         -0.00000000         -0.00000000         -0.00000000
     6          0.36634029          2.81395275         -0.13332088
     1         -0.37176090         -1.05294980         -1.73821646
     6         -1.03366632          3.98751778          2.15502258
     1         -0.44674687          3.51013448         -1.91653650
     1          2.37081058          3.38947726         -0.14561287
     6         -3.13685620          2.25950155          2.98319119
     1          0.25946194          4.25508739          3.76406283
     1         -1.79418947          5.86838141          1.68154717
     6         -0.63410427         -1.01972343          2.29787025
     8         -5.03396322          1.83021032          1.31220375
     1         -3.71268487          2.28075161          4.98408100
     1         -1.39489377         -2.93879075          2.42050056
     1          0.19658046         -0.31257567          4.05528390
     8         -6.58710720          4.12736190          1.15580162
     1         -8.12789475          3.50787315          1.91806303

 Electric dipole moment (dipole orientation):
 (Debye = 10**-18 statcoulomb cm , SI units = C m)
                  (au)            (Debye)         (10**-30 SI)
   Tot        0.518537D+00      0.131799D+01      0.439634D+01
   x          0.000000D+00      0.000000D+00      0.000000D+00
   y          0.000000D+00      0.000000D+00      0.000000D+00
   z          0.518537D+00      0.131799D+01      0.439634D+01

 Dipole polarizability, Alpha (dipole orientation).
 (esu units = cm**3 , SI units = C**2 m**2 J**-1)
 Alpha(0;0):
               (au)            (10**-24 esu)      (10**-40 SI)
   iso        0.677340D+02      0.100371D+02      0.111678D+02
   aniso      0.261461D+02      0.387445D+01      0.431091D+01
   xx         0.743374D+02      0.110157D+02      0.122566D+02
   yx        -0.116714D+02     -0.172953D+01     -0.192436D+01
   yy         0.677056D+02      0.100329D+02      0.111631D+02
   zx        -0.694486D+01     -0.102912D+01     -0.114505D+01
   zy        -0.211509D-01     -0.313425D-02     -0.348732D-02
   zz         0.611589D+02      0.906282D+01      0.100837D+02

 ----------------------------------------------------------------------

 Test job not archived.
 1\1\GINC-CSED-0032\Freq\UwB97XD\def2SVP\C5H9O2(2)\COPAN\14-May-2025\0\
 \#P wb97xd/def2svp # SCF=(xqc) # Freq=() # IOp(7/33=1) # int=ultrafine
 \\comment:\\0,2\C,0.,0.,0.\C,0.,0.,1.503302\H,0.,0.953916,-0.534127\C,
 -0.967315,-1.118499,1.966084\H,-0.350448,0.981515,1.85702\H,1.002233,-
 0.144699,1.942066\C,-1.994814,-1.376477,0.896219\H,-0.423739,-2.057798
 ,2.15462\H,-1.463831,-0.845722,2.911838\C,-0.414184,-1.143595,-0.63484
 7\O,-2.836728,-0.359348,0.583236\H,-2.432261,-2.384777,0.818372\H,-0.6
 82014,-1.123977,-1.695728\H,-0.152354,-2.134727,-0.251139\O,-3.796524,
 -0.203051,1.685233\H,-4.605728,-0.483664,1.236441\\Version=ES64L-G16Re
 vC.01\State=2-A\HF=-345.8153806\S2=0.805862\S2-1=0.\S2A=0.750759\RMSD=
 7.824e-09\RMSF=2.342e-05\ZeroPoint=0.1311506\Thermal=0.1389285\ETot=-3
 45.6764521\HTot=-345.6755079\GTot=-345.7170377\Dipole=-0.0668682,-0.51
 36316,-0.0243351\DipoleDeriv=-0.3708673,-0.0752694,0.1219578,-0.063971
 6,0.0661635,-0.0362524,0.1401218,0.0326301,0.0581133,0.1045756,-0.0308
 936,-0.0157999,-0.0718034,0.0267668,0.0275719,0.0397651,-0.0081634,-0.
 0324876,0.1950702,0.0460599,-0.040728,-0.032951,-0.044641,0.057293,-0.
 0043954,0.0458777,-0.0028611,-0.0033838,-0.0670679,-0.007743,-0.042226
 5,0.0315282,-0.0894649,-0.0861141,0.0202485,-0.1046622,0.053059,0.0568
 4,0.0540705,0.00218,-0.0814191,-0.0345372,-0.011535,-0.0471461,0.00670
 83,-0.080372,-0.0163788,-0.0912076,0.0538781,0.0722412,0.0179601,-0.09
 87066,-0.0192945,0.0059679,0.4273754,-0.0773408,0.0601063,0.0800094,0.
 4579651,-0.0263483,-0.0236111,-0.0786999,0.3940128,-0.007935,0.0611767
 ,-0.0341606,0.0479699,-0.1054752,0.0494133,0.0005837,0.0040928,0.06277
 7,0.0566777,0.0125072,0.0472426,0.0031393,0.068636,-0.0421229,0.056072
 7,0.0011183,-0.0805848,-0.036298,0.0029024,0.0557716,0.0120869,-0.0157
 588,0.0148779,-0.0281133,-0.0481675,0.0009762,0.2024889,-0.0503028,-0.
 3212992,-0.2209097,-0.3403115,0.0585845,-0.4846785,0.1450922,-0.164363
 ,-0.0658185,-0.1048519,-0.0309021,-0.0244513,-0.1416163,-0.0251461,-0.
 0309414,0.0413042,0.0310649,0.0996284,0.0009332,-0.0000647,-0.000308,0
 .0641733,0.0074721,-0.0258057,-0.0236986,-0.0898861,0.0685214,0.051159
 8,-0.0161018,0.0506134,-0.0317015,0.0128395,-0.022252,0.0590082,0.0244
 668,-0.9477476,0.2243568,0.2508643,0.231061,-0.3257966,0.0642064,0.553
 1184,-0.0540903,-0.2904937,0.3050257,-0.0338307,-0.0320062,-0.0243165,
 0.2992459,-0.0563466,0.0264914,-0.0701117,0.1812514\Polar=78.8322736,5
 .0550829,59.4639247,-9.9185912,2.0390362,64.9057485\Quadrupole=2.04248
 79,-0.4312484,-1.6112395,1.5446329,1.3362821,-0.2170836\PG=C01 [X(C5H9
 O2)]\NImag=1\\0.15983547,0.09051176,0.70422378,0.04684705,-0.00931962,
 0.56272139,-0.05790010,0.00951746,0.01468519,0.52508489,0.00226179,-0.
 09109473,-0.00317673,-0.04552068,0.54594094,-0.01247533,0.00461492,-0.
 22421691,0.05157365,0.04702885,0.49772200,-0.03024457,0.00137860,-0.00
 987470,0.00450824,0.00372418,0.00173323,0.01785144,-0.00573928,-0.2763
 5846,0.12392182,0.00042570,0.00443011,-0.00427631,0.00425000,0.2889506
 3,-0.00339239,0.12558999,-0.12376890,0.00102511,0.02238311,-0.00837645
 ,0.00375305,-0.13022996,0.12740245,-0.00373536,-0.00171358,0.01329096,
 -0.11077482,-0.03999586,0.01891533,-0.00054211,0.00034841,-0.00098296,
 0.49093437,-0.00420186,-0.00197920,0.01109378,-0.04160162,-0.13368497,
 0.02058182,-0.00117606,0.00053704,-0.00055910,-0.07796598,0.54730060,0
 .01586559,0.01873057,-0.02500770,0.01834385,0.02342845,-0.08073091,0.0
 0061270,-0.00087411,-0.00374051,-0.02070964,0.00499703,0.55416556,-0.0
 0002267,-0.00057510,-0.00251714,-0.07602952,0.08053765,0.03095862,0.00
 043897,-0.00002103,0.00002880,0.00690596,-0.01884172,-0.00607546,0.078
 66088,-0.00121831,0.00208446,0.00096907,0.07995453,-0.26349661,-0.0766
 5828,-0.00109351,0.00104267,0.00012820,0.00761473,-0.01709829,-0.00495
 179,-0.08402586,0.28146590,0.00936918,-0.03262286,-0.01440601,0.030187
 06,-0.07732059,-0.07178696,0.00007087,0.00023011,0.00096912,-0.0034320
 4,0.01189204,0.00154520,-0.03294951,0.08062237,0.08307715,0.00524543,-
 0.00199801,-0.00184880,-0.26479316,0.03565274,-0.09143057,-0.00085836,
 -0.00040310,-0.00007553,-0.01416562,0.00309287,-0.00693441,-0.00924469
 ,0.00090479,-0.00417977,0.28344782,-0.00175838,0.00017194,0.00033915,0
 .03794515,-0.04732345,0.01546562,-0.00060547,-0.00005152,0.00046997,-0
 .02200733,0.00130622,-0.00994565,0.02567679,-0.00347831,0.01165744,-0.
 03624491,0.05312909,-0.02604300,0.00481277,-0.01146062,-0.09787168,0.0
 1502180,-0.08394797,0.00001875,0.00010988,-0.00193037,0.00958912,-0.00
 123097,0.00470630,0.00974540,-0.00144094,0.00449546,0.10285586,-0.0171
 2670,0.09076512,-0.03948301,-0.05458871,-0.02157871,-0.01852741,-0.014
 23386,-0.00680201,-0.00171209,0.00098449,-0.00093947,-0.12305479,-0.02
 208677,-0.08561822,0.00029099,0.00015025,-0.00088922,-0.00093474,-0.00
 125728,0.00117538,0.39121937,-0.01706889,-0.00475486,0.00393906,-0.022
 76918,-0.00802077,-0.01778837,-0.00002671,-0.00024504,-0.00024080,-0.0
 2763243,-0.09456736,-0.02481280,-0.00118245,-0.00140865,-0.00035338,-0
 .00194192,-0.00362895,0.00108824,0.04565655,0.59642287,0.03657868,0.05
 226081,0.02493527,-0.00894058,-0.00574956,0.00417604,0.00314016,-0.000
 77510,-0.00071766,-0.06953001,-0.02654941,-0.13380028,0.00099080,0.001
 04979,-0.00008737,0.00294376,0.00156351,-0.00223817,0.18943998,0.01565
 474,0.23201535,0.00016107,-0.00025258,-0.00014691,0.00967780,-0.020077
 04,0.00252561,-0.00011102,0.00000619,0.00022911,-0.11539695,0.11467973
 ,-0.02324821,-0.00191705,-0.00313806,0.00184750,0.00148170,-0.00019077
 ,-0.00038920,-0.00836864,0.02040454,0.00132811,0.12571712,-0.00052433,
 -0.00061069,-0.00018055,0.00955828,-0.01718331,0.00107023,0.00001921,0
 .00009995,0.00032178,0.11690007,-0.24123301,0.03814139,-0.00273551,-0.
 00201603,0.00225756,0.00001915,0.00101230,-0.00013340,-0.00395510,0.00
 441159,-0.00189767,-0.12152799,0.25938975,0.00069298,0.00049176,-0.000
 18274,-0.00509998,0.00569341,-0.00145037,0.00009870,-0.00006931,-0.000
 21746,-0.02143042,0.03615455,-0.05501327,0.00040340,0.00042906,-0.0000
 8283,-0.00029541,-0.00054513,0.00087843,-0.00947058,0.02200229,-0.0023
 4670,0.02599529,-0.04053452,0.05679319,-0.00136433,-0.00254515,-0.0010
 5955,-0.00700936,0.00504323,0.01490330,-0.00004318,0.00009470,0.000636
 00,-0.10015519,0.03260773,0.10230330,0.00140129,0.00010335,-0.00021207
 ,-0.00060328,-0.00034778,0.00011128,0.00817974,-0.00591529,-0.01904593
 ,-0.00678671,0.00346741,0.01369687,0.10468744,-0.00239921,-0.00252973,
 0.00114064,-0.01076780,0.00403661,0.02139719,-0.00014595,0.00004778,0.
 00087702,0.03494854,-0.06203600,-0.06165275,0.00012504,0.00092502,0.00
 049036,-0.00046292,-0.00022940,-0.00006936,0.00107844,-0.00158581,-0.0
 0581657,0.01053454,-0.00628291,-0.02278482,-0.03200921,0.06834928,0.00
 061448,0.00020611,-0.00043718,0.00237301,-0.00182623,-0.00513712,-0.00
 006715,-0.00001713,-0.00024484,0.10666181,-0.05911073,-0.24157189,-0.0
 0017178,-0.00001073,0.00073946,0.00014994,0.00027142,-0.00028664,0.006
 13632,-0.00561366,-0.02053710,-0.00344957,0.00219664,0.00617647,-0.112
 94941,0.06435903,0.25968372,-0.03361743,-0.02374684,-0.02814134,-0.008
 06468,-0.00311520,-0.01070702,0.01039878,0.00254083,0.00047055,-0.0044
 7405,-0.00137027,0.00945465,0.00048464,0.00134655,0.00128952,0.0008993
 7,-0.00118283,-0.00027125,0.07054588,0.00044819,-0.08434127,-0.0005861
 6,-0.00033248,-0.00025920,0.00120706,-0.00016368,-0.00057396,0.0651660
 9,-0.05709703,-0.30881793,-0.10772738,-0.01239780,0.00824756,-0.011543
 43,-0.00705357,-0.01704544,-0.01548564,-0.00505973,0.00106645,0.007367
 97,0.00040481,0.00099357,0.00356357,0.00138962,-0.00110038,0.00000252,
 0.05150950,-0.01546418,-0.05226459,0.00037657,-0.00036295,0.00036208,0
 .00074462,-0.00066457,0.00084471,-0.05099697,0.66183432,-0.07470904,-0
 .16338302,-0.18980366,-0.00505205,-0.02683495,-0.02224296,0.00235360,0
 .01377755,0.00956831,0.00435911,-0.00502110,-0.02003498,0.00002944,-0.
 00010402,-0.00519225,-0.00029282,-0.00061708,-0.00159662,-0.04032798,-
 0.00240122,0.02417451,0.00069824,-0.00025169,0.00025013,-0.00173673,0.
 00043227,-0.00139566,0.22121504,0.08201064,0.61873620,0.00538956,0.014
 90812,0.00601623,0.00281701,0.00164489,-0.00142403,-0.00014844,0.00009
 417,0.00030302,-0.03246188,0.03091923,-0.00551687,-0.00021693,0.000310
 57,0.00087368,0.00020980,-0.00009544,0.00065170,-0.09368408,0.06815379
 ,-0.07199054,-0.00575578,-0.00098264,-0.00558716,0.00409848,0.00053243
 ,0.00371856,-0.03060922,-0.01396983,0.01165536,0.21419307,-0.00671694,
 -0.01028624,-0.00426921,-0.00101371,-0.00001327,0.00184391,0.00042329,
 0.00016515,-0.00028603,0.01777559,-0.00024617,0.00325562,0.00056784,0.
 00069918,-0.00013098,0.00012656,0.00095229,-0.00033792,0.06476960,-0.1
 9274461,0.07517823,0.00041327,0.00153732,0.00014715,-0.00196412,-0.000
 45017,-0.00164199,0.01815906,0.01032229,-0.00684999,-0.09840930,0.2398
 5860,-0.00222342,-0.00627279,-0.00224690,0.00070966,0.00007003,0.00070
 083,-0.00018297,-0.00012347,0.00024224,-0.01804459,0.02838052,-0.00523
 214,-0.00041363,-0.00043092,0.00002044,-0.00002008,0.00001557,0.000137
 01,-0.06132938,0.07164230,-0.08662346,-0.00513850,-0.00165728,-0.00424
 363,0.00106175,0.00012646,0.00014174,0.01427870,0.00292282,-0.00421997
 ,0.01671520,-0.11645459,0.20595893,-0.00012674,0.00085310,-0.00024308,
 -0.00315146,-0.00128470,-0.00236950,0.00003605,-0.00003018,0.00015542,
 -0.00151329,-0.01376781,0.00257527,-0.00030039,-0.00038698,0.00000766,
 -0.00038185,-0.00080705,0.00007036,-0.09598065,-0.11442413,-0.02424109
 ,-0.00001264,-0.00005232,0.00030261,-0.00074344,-0.00050512,-0.0007827
 8,-0.00248760,-0.00333254,0.00053675,0.00462388,0.03402639,0.00083666,
 0.09622301,0.00031696,-0.00027760,-0.00089705,-0.00013829,0.00083661,-
 0.00041880,-0.00006611,0.00011443,0.00006836,-0.00007623,0.00011176,0.
 00404857,0.00002242,0.00007057,0.00010177,-0.00001391,-0.00020310,0.00
 016614,-0.10448044,-0.26380243,-0.02716928,-0.00059351,0.00052459,-0.0
 0062997,0.00005320,-0.00006660,0.00012572,0.00127634,0.00113333,0.0002
 3525,0.00393237,-0.03540954,0.00561221,0.10194158,0.29396020,0.0006607
 0,-0.00173732,-0.00261310,-0.00030883,0.00111195,-0.00383893,-0.000446
 64,0.00006193,0.00024785,-0.01204139,-0.01929291,0.00374345,-0.0003610
 7,-0.00027203,0.00014268,-0.00080784,-0.00083806,0.00054618,-0.0238871
 6,-0.01166780,-0.03513558,0.00039741,0.00047493,0.00059430,0.00064791,
 0.00024731,-0.00030848,0.00648915,0.00629230,-0.00078502,0.00698632,0.
 00723591,0.00291351,0.02668920,0.01747370,0.03106612,0.00459197,0.0072
 5752,-0.00995481,0.00645347,-0.00466829,0.00190223,-0.00496441,0.00076
 475,0.00145987,-0.00109975,0.00110368,0.00252220,0.00014417,0.00013870
 ,-0.00159167,0.00000746,0.00028879,0.00172767,0.00841594,-0.00019722,-
 0.00226888,0.00003796,0.00002080,-0.00009359,0.00040707,0.00011187,0.0
 0063772,-0.06113675,-0.00316364,-0.06945021,-0.00048175,0.00043413,-0.
 00013163,-0.00031002,-0.00008570,0.00030250,0.04635503,-0.00321929,0.0
 0559547,-0.02697322,-0.00253102,-0.00356663,-0.00148547,0.00053209,0.0
 0077257,0.00001194,-0.00050888,-0.00056756,0.00117843,-0.00004588,-0.0
 0006854,-0.00085394,-0.00000702,-0.00016471,-0.00073665,0.00156994,-0.
 00089101,-0.00093631,-0.00017937,0.00036665,-0.00025662,0.00000345,0.0
 0029488,-0.00000742,-0.00001920,-0.05523508,0.01209584,-0.00022246,0.0
 0018347,-0.00012622,0.00003744,0.00001456,0.00015008,-0.00089122,0.051
 49013,-0.00198270,0.00234528,-0.00800890,-0.00288116,-0.00081242,-0.00
 004725,0.00193672,-0.00034800,0.00045830,0.00000402,-0.00064908,-0.000
 03711,-0.00020557,-0.00007169,-0.00009519,-0.00005170,-0.00013774,-0.0
 0089012,-0.00308577,0.00011722,0.00131665,0.00000332,-0.00004720,0.000
 22068,-0.00007992,-0.00001874,-0.00012836,-0.07415371,0.00866639,-0.32
 696727,0.00025702,-0.00002358,0.00021275,0.00027963,0.00002980,-0.0002
 5341,0.08157083,-0.00645194,0.34007892,-0.00607835,-0.03132042,-0.0034
 8576,-0.00196318,0.00059038,0.00061238,0.00504652,-0.00311951,-0.00243
 488,0.00205320,-0.00003073,-0.00205864,-0.00034848,-0.00015539,0.00029
 842,-0.00046205,0.00018162,-0.00073363,-0.02521035,0.00951408,0.019400
 74,0.00049395,-0.00009151,0.00035550,-0.00048618,-0.00045053,-0.000424
 08,-0.01923270,0.08756855,-0.04232491,0.00557559,-0.00470225,-0.001136
 90,-0.00011457,-0.00066885,-0.00107119,0.00128175,0.00537699,-0.001830
 44,0.04375626,0.00437551,-0.01823887,0.01079818,-0.00102768,0.00099200
 ,0.00083123,0.00010439,-0.00256350,-0.00302707,-0.00027981,0.00007248,
 0.00048217,-0.00004318,0.00012377,0.00022633,-0.00003086,-0.00020611,-
 0.00037405,0.00216775,0.00079721,-0.00109585,-0.00012927,0.00044749,-0
 .00015837,-0.00005465,0.00026105,-0.00009041,0.06031654,-0.28272649,0.
 09519556,-0.00005321,0.00002542,-0.00011775,-0.00037297,0.00021972,0.0
 0025743,-0.00108626,0.00184186,-0.00242077,-0.06374217,0.29889197,0.00
 740843,-0.00263811,0.01306472,0.00073912,0.00026257,0.00052806,-0.0027
 3795,-0.00151033,-0.00012443,0.00089401,-0.00110654,-0.00093172,0.0002
 0589,0.00032328,0.00019733,0.00011703,-0.00016413,0.00031846,0.0133010
 3,-0.00494921,-0.00801593,0.00025360,0.00030948,-0.00137504,-0.0002784
 3,0.00030404,0.00023798,-0.04426853,0.08356604,-0.08694896,-0.00318265
 ,0.00254115,0.00038986,-0.00012754,0.00009278,0.00042549,-0.00609823,0
 .02439477,-0.00582607,0.03123167,-0.10064569,0.09012330,-0.00297091,-0
 .00757411,-0.00172187,-0.00045254,-0.00055642,0.00206918,0.00046212,-0
 .00020878,-0.00023809,0.00662447,-0.00105515,-0.00184879,-0.00022087,-
 0.00050592,-0.00068229,0.00010929,0.00043347,-0.00067315,-0.06595229,0
 .04585098,0.02484473,0.00117090,0.00024048,0.00061002,-0.00285994,-0.0
 0037399,-0.00179717,0.01118196,0.01057195,-0.00696084,-0.05398850,-0.0
 2089800,0.05897038,0.00438532,-0.00132503,-0.00335876,0.00030796,0.000
 09139,0.00022452,-0.00416973,-0.00010589,0.00245764,0.46770078,0.00257
 601,0.00300117,0.00041056,0.00041345,-0.00000200,-0.00047953,-0.000217
 73,0.00012242,-0.00004672,-0.00238730,0.00159225,0.00029664,0.00013523
 ,0.00017292,0.00025294,-0.00006056,-0.00015954,0.00022647,0.03007131,-
 0.01634072,-0.02353369,-0.00045096,-0.00009195,-0.00039217,0.00075782,
 -0.00006191,0.00039786,-0.00339003,-0.00205303,0.00177236,-0.01348708,
 -0.01553769,0.01426444,-0.00183123,0.00365847,0.00086217,-0.00002765,-
 0.00008990,-0.00017751,0.00093939,0.00005967,-0.00075748,0.10646947,0.
 07445186,0.00278318,0.00681989,0.00155637,0.00047877,0.00061799,-0.001
 14695,-0.00035417,0.00009990,0.00018279,-0.00729059,0.00063513,0.00248
 870,0.00026504,0.00035832,0.00041047,-0.00009986,-0.00037894,0.0004327
 3,0.04159213,-0.04818293,0.00553387,-0.00076642,-0.00008425,-0.0002470
 2,0.00180457,0.00101529,0.00249512,-0.01050289,-0.00797368,0.00606653,
 -0.00276977,0.03366886,-0.11066476,-0.00329701,0.00150932,0.00294386,-
 0.00056180,0.00000639,0.00001504,0.00335832,0.00014958,-0.00189133,0.1
 5504961,0.09526589,0.25265970,0.00031999,-0.00011207,-0.00026674,0.000
 12481,-0.00000281,0.00001493,-0.00011794,0.00001265,0.00000240,0.00085
 581,-0.00030527,0.00033268,-0.00002629,0.00000055,-0.00000732,0.000042
 88,-0.00002858,0.00003638,-0.00574386,0.00113011,0.00169135,0.00019445
 ,-0.00002354,0.00008096,0.00007053,-0.00005245,-0.00007594,0.00032481,
 0.00050549,0.00000703,-0.01956080,-0.00299143,-0.00395125,-0.00014561,
 -0.00009478,0.00010968,-0.00001011,0.00001304,-0.00000507,-0.00014165,
 -0.00003825,0.00008493,-0.36132801,-0.11951014,-0.17968910,0.38514102,
 -0.00009853,-0.00012850,-0.00006850,-0.00004679,-0.00009808,-0.0001835
 8,-0.00004665,-0.00001879,0.00002494,0.00003979,-0.00057424,0.00031026
 ,0.00000095,-0.00001163,-0.00001273,-0.00002252,-0.00002637,0.00002219
 ,0.00264434,0.00182272,0.00008097,0.00012472,-0.00000878,0.00009060,-0
 .00003932,-0.00000752,-0.00008320,0.00022998,-0.00012746,-0.00005640,0
 .00672439,0.00094397,0.00214866,-0.00006350,-0.00088499,-0.00035958,-0
 .00000027,0.00002384,-0.00000001,0.00011035,0.00000232,-0.00002262,-0.
 13105444,-0.04872201,-0.08352676,0.12149749,0.04781553,0.00000561,0.00
 010162,-0.00012512,0.00003886,0.00010232,-0.00020414,-0.00005421,0.000
 02253,0.00004956,-0.00025271,-0.00021503,-0.00054869,0.00006679,0.0000
 6030,0.00005330,-0.00002980,-0.00002923,0.00007082,0.00228365,0.001566
 32,-0.00264942,-0.00013937,0.00001455,0.00024587,0.00019705,-0.0000473
 7,0.00057278,0.00002155,-0.00060433,0.00039169,0.04329392,0.00612347,0
 .00251356,-0.00039255,-0.00034854,0.00031108,0.00002783,-0.00000966,-0
 .00004868,0.00024340,-0.00001050,-0.00017172,-0.22694512,-0.08836221,-
 0.16083512,0.18163509,0.08163576,0.16037424\\0.00000952,0.00001785,-0.
 00000552,0.00000121,-0.00004303,-0.00000061,-0.00000210,-0.00000140,-0
 .00000336,-0.00002020,0.00000959,0.00002490,-0.00000301,0.00000187,-0.
 00000397,0.00000116,0.00000809,0.00000028,-0.00007201,0.00005142,0.000
 04455,0.00000824,0.00000492,0.00000911,0.00000187,-0.00000210,0.000001
 02,-0.00003328,0.00000892,-0.00004386,0.00007363,-0.00003479,-0.000027
 13,0.00002332,-0.00001056,-0.00000749,0.00002608,-0.00000400,-0.000009
 33,-0.00001515,0.00000213,0.00000605,-0.00000691,-0.00000462,0.0000199
 8,0.00000764,-0.00000428,-0.00000462\\\@


 There ain't no surer way to find out whether you
 like people or hate them than to travel with them.
                                     -- Mark Twain
 Job cpu time:       0 days  0 hours 12 minutes  6.2 seconds.
 Elapsed time:       0 days  0 hours  2 minutes  8.0 seconds.
 File lengths (MBytes):  RWF=     77 Int=      0 D2E=      0 Chk=      3 Scr=      1
 Normal termination of Gaussian 16 at Wed May 14 13:35:25 2025.
