 Entering Gaussian System, Link 0=g16
 Input=run.inp
 Output=run.out
 Initial command:
 /apps/eb/gaussian/16-AVX2/g16/l1.exe "/scratch/gtemp/avcopan/Gau-2060118.inp" -scrdir="/scratch/gtemp/avcopan/"
 Entering Link 1 = /apps/eb/gaussian/16-AVX2/g16/l1.exe PID=   2060119.
  
 Copyright (c) 1988-2019, Gaussian, Inc.  All Rights Reserved.
  
 This is part of the Gaussian(R) 16 program.  It is based on
 the Gaussian(R) 09 system (copyright 2009, Gaussian, Inc.),
 the Gaussian(R) 03 system (copyright 2003, Gaussian, Inc.),
 the Gaussian(R) 98 system (copyright 1998, Gaussian, Inc.),
 the Gaussian(R) 94 system (copyright 1995, Gaussian, Inc.),
 the Gaussian 92(TM) system (copyright 1992, Gaussian, Inc.),
 the Gaussian 90(TM) system (copyright 1990, Gaussian, Inc.),
 the Gaussian 88(TM) system (copyright 1988, Gaussian, Inc.),
 the Gaussian 86(TM) system (copyright 1986, Carnegie Mellon
 University), and the Gaussian 82(TM) system (copyright 1983,
 Carnegie Mellon University). Gaussian is a federally registered
 trademark of Gaussian, Inc.
  
 This software contains proprietary and confidential information,
 including trade secrets, belonging to Gaussian, Inc.
  
 This software is provided under written license and may be
 used, copied, transmitted, or stored only in accord with that
 written license.
  
 The following legend is applicable only to US Government
 contracts under FAR:
  
                    RESTRICTED RIGHTS LEGEND
  
 Use, reproduction and disclosure by the US Government is
 subject to restrictions as set forth in subparagraphs (a)
 and (c) of the Commercial Computer Software - Restricted
 Rights clause in FAR 52.227-19.
  
 Gaussian, Inc.
 340 Quinnipiac St., Bldg. 40, Wallingford CT 06492
  
  
 ---------------------------------------------------------------
 Warning -- This program may not be used in any manner that
 competes with the business of Gaussian, Inc. or will provide
 assistance to any competitor of Gaussian, Inc.  The licensee
 of this program is prohibited from giving any competitor of
 Gaussian, Inc. access to this program.  By using this program,
 the user acknowledges that Gaussian, Inc. is engaged in the
 business of creating and licensing software in the field of
 computational chemistry and represents and warrants to the
 licensee that it is not a competitor of Gaussian, Inc. and that
 it will not use this program in any manner prohibited above.
 ---------------------------------------------------------------
  

 Cite this work as:
 Gaussian 16, Revision C.01,
 M. J. Frisch, G. W. Trucks, H. B. Schlegel, G. E. Scuseria, 
 M. A. Robb, J. R. Cheeseman, G. Scalmani, V. Barone, 
 G. A. Petersson, H. Nakatsuji, X. Li, M. Caricato, A. V. Marenich, 
 J. Bloino, B. G. Janesko, R. Gomperts, B. Mennucci, H. P. Hratchian, 
 J. V. Ortiz, A. F. Izmaylov, J. L. Sonnenberg, D. Williams-Young, 
 F. Ding, F. Lipparini, F. Egidi, J. Goings, B. Peng, A. Petrone, 
 T. Henderson, D. Ranasinghe, V. G. Zakrzewski, J. Gao, N. Rega, 
 G. Zheng, W. Liang, M. Hada, M. Ehara, K. Toyota, R. Fukuda, 
 J. Hasegawa, M. Ishida, T. Nakajima, Y. Honda, O. Kitao, H. Nakai, 
 T. Vreven, K. Throssell, J. A. Montgomery, Jr., J. E. Peralta, 
 F. Ogliaro, M. J. Bearpark, J. J. Heyd, E. N. Brothers, K. N. Kudin, 
 V. N. Staroverov, T. A. Keith, R. Kobayashi, J. Normand, 
 K. Raghavachari, A. P. Rendell, J. C. Burant, S. S. Iyengar, 
 J. Tomasi, M. Cossi, J. M. Millam, M. Klene, C. Adamo, R. Cammi, 
 J. W. Ochterski, R. L. Martin, K. Morokuma, O. Farkas, 
 J. B. Foresman, and D. J. Fox, Gaussian, Inc., Wallingford CT, 2019.
 
 ******************************************
 Gaussian 16:  ES64L-G16RevC.01  3-Jul-2019
                 1-Sep-2025 
 ******************************************
 %mem=15GB
 %NProcShared=8
 Will use up to    8 processors via shared memory.
 ----------------------------------------------------------------------
 #p dsdpbep86/def2TZVPP iop(3/125=0079905785,3/78=0429604296,3/76=03100
 06900,3/74=1004) # empiricaldispersion=gd3bj iop(3/174=0437700,3/175=-
 1,3/176=0,3/177=-1,3/178=5500000) # SCF=(xqc) # POpt=(CALCFC,TS,NOEIGE
 N,MAXCYCLES=60) # Freq # int=ultrafine
 ----------------------------------------------------------------------
 1/5=1,6=60,10=4,11=1,38=1/1,3;
 2/12=2,17=6,18=5,29=3,40=1/2;
 3/5=44,7=202,11=9,25=1,30=1,71=2,74=1004,75=-5,76=310006900,78=429604296,124=41,125=79905785,140=1,174=437700,175=-1,177=-1,178=5500000/1,2,3;
 4//1;
 5/5=2,8=3,13=1,38=5/2,8;
 8/6=3,8=1,10=1,19=11,30=-1/1;
 9/15=3,16=-3/6;
 11/6=1,8=1,15=11,17=12,24=-1,27=1,28=-2,29=300,32=6,42=3/1,2,10;
 10/6=2,21=1/2;
 8/6=4,8=1,10=1,19=11,30=-1/11,4;
 10/5=1,20=4/2;
 11/12=2,14=11,16=1,17=2,28=-2,42=3,76=2/2,10,12;
 6/7=2,8=2,9=2,10=2/1;
 7/10=1,12=2,25=1,44=2/1,2,3,16;
 1/5=1,6=60,10=4,11=1/3(2);
 2/29=3/2;
 99//99;
 2/29=3/2;
 3/5=44,7=202,11=9,25=1,30=1,71=1,74=1004,75=-5,76=310006900,78=429604296,124=41,125=79905785,174=437700,175=-1,177=-1,178=5500000/1,2,3;
 4/5=5,16=3,69=1/1;
 5/5=2,8=3,13=1,38=5/2,8;
 8/6=4,10=1/1;
 9/15=2,16=-3/6;
 10/5=1/2;
 7/12=2/1,2,3,16;
 1/5=1,6=60,11=1/3(-8);
 2/29=3/2;
 6/7=2,8=2,9=2,10=2/1;
 99/9=10/99;
 Leave Link    1 at Mon Sep  1 10:26:57 2025, MaxMem=  2013265920 cpu:               0.6 elap:               0.1
 (Enter /apps/eb/gaussian/16-AVX2/g16/l101.exe)
 --------
 comment:
 --------
 Symbolic Z-matrix:
 Charge =  0 Multiplicity = 2
 C
 C                    1    R1
 H                    1    R2       2    A2
 C                    2    R3       1    A3       3    D3       0
 H                    2    R4       1    A4       4    D4       0
 C                    4    R5       2    A5       1    D5       0
 H                    4    R6       2    A6       6    D6       0
 H                    4    R7       2    A7       6    D7       0
 C                    6    R8       4    A8       2    D8       0
 H                    6    R9       4    A9       9    D9       0
 H                    6    R10      4    A10      9    D10      0
 H                    9    R11      6    A11      4    D11      0
 H                    9    R12      6    A12      12   D12      0
 O                    1    R13      2    A13      3    D13      0
 H                    14   R14      1    A14      2    D14      0
       Variables:
  R1                    1.34778                  
  R2                    1.09008                  
  R3                    1.5067                   
  R4                    1.09222                  
  R5                    1.5435                   
  R6                    1.10146                  
  R7                    1.10615                  
  R8                    1.54362                  
  R9                    1.10115                  
  R10                   1.09901                  
  R11                   1.10101                  
  R12                   1.10202                  
  R13                   2.35608                  
  R14                   0.97185                  
  A2                  124.79622                  
  A3                  111.53665                  
  A4                  124.65881                  
  A5                  103.12417                  
  A6                  112.92134                  
  A7                  110.18741                  
  A8                  105.51193                  
  A9                  109.10987                  
  A10                 112.78812                  
  A11                 112.82279                  
  A12                 112.30403                  
  A13                  88.1873                   
  A14                  99.74022                  
  D3                  180.03922                  
  D4                  182.85876                  
  D5                   15.07787                  
  D6                  122.26295                  
  D7                  240.64834                  
  D8                  338.63966                  
  D9                  117.52974                  
  D10                 236.34377                  
  D11                 142.19763                  
  D12                 121.19901                  
  D13                 277.72555                  
  D14                 346.38371                  
 
 ITRead=  0  0  0  0  0  0  0  0  0  0  0  0  0  0  0
 MicOpt= -1 -1 -1 -1 -1 -1 -1 -1 -1 -1 -1 -1 -1 -1 -1
 NAtoms=     15 NQM=       15 NQMF=       0 NMMI=      0 NMMIF=      0
                NMic=       0 NMicF=      0.
                    Isotopes and Nuclear Properties:
 (Nuclear quadrupole moments (NQMom) in fm**2, nuclear magnetic moments (NMagM)
  in nuclear magnetons)

  Atom         1           2           3           4           5           6           7           8           9          10
 IAtWgt=          12          12           1          12           1          12           1           1          12           1
 AtmWgt=  12.0000000  12.0000000   1.0078250  12.0000000   1.0078250  12.0000000   1.0078250   1.0078250  12.0000000   1.0078250
 NucSpn=           0           0           1           0           1           0           1           1           0           1
 AtZEff=  -0.0000000  -0.0000000  -0.0000000  -0.0000000  -0.0000000  -0.0000000  -0.0000000  -0.0000000  -0.0000000  -0.0000000
 NQMom=    0.0000000   0.0000000   0.0000000   0.0000000   0.0000000   0.0000000   0.0000000   0.0000000   0.0000000   0.0000000
 NMagM=    0.0000000   0.0000000   2.7928460   0.0000000   2.7928460   0.0000000   2.7928460   2.7928460   0.0000000   2.7928460
 AtZNuc=   6.0000000   6.0000000   1.0000000   6.0000000   1.0000000   6.0000000   1.0000000   1.0000000   6.0000000   1.0000000

  Atom        11          12          13          14          15
 IAtWgt=           1           1           1          16           1
 AtmWgt=   1.0078250   1.0078250   1.0078250  15.9949146   1.0078250
 NucSpn=           1           1           1           0           1
 AtZEff=  -0.0000000  -0.0000000  -0.0000000  -0.0000000  -0.0000000
 NQMom=    0.0000000   0.0000000   0.0000000   0.0000000   0.0000000
 NMagM=    2.7928460   2.7928460   2.7928460   0.0000000   2.7928460
 AtZNuc=   1.0000000   1.0000000   1.0000000   8.0000000   1.0000000
 Leave Link  101 at Mon Sep  1 10:26:57 2025, MaxMem=  2013265920 cpu:               0.5 elap:               0.1
 (Enter /apps/eb/gaussian/16-AVX2/g16/l103.exe)

 GradGradGradGradGradGradGradGradGradGradGradGradGradGradGradGradGradGrad
 Berny optimization.
 Initialization pass.
                       ----------------------------
                       !    Initial Parameters    !
                       ! (Angstroms and Degrees)  !
 ----------------------                            ----------------------
 !      Name          Value   Derivative information (Atomic Units)     !
 ------------------------------------------------------------------------
 !       R1          1.3478   calculate D2E/DX2 analytically            !
 !       R2          1.0901   calculate D2E/DX2 analytically            !
 !       R3          1.5067   calculate D2E/DX2 analytically            !
 !       R4          1.0922   calculate D2E/DX2 analytically            !
 !       R5          1.5435   calculate D2E/DX2 analytically            !
 !       R6          1.1015   calculate D2E/DX2 analytically            !
 !       R7          1.1062   calculate D2E/DX2 analytically            !
 !       R8          1.5436   calculate D2E/DX2 analytically            !
 !       R9          1.1011   calculate D2E/DX2 analytically            !
 !       R10         1.099    calculate D2E/DX2 analytically            !
 !       R11         1.101    calculate D2E/DX2 analytically            !
 !       R12         1.102    calculate D2E/DX2 analytically            !
 !       R13         2.3561   calculate D2E/DX2 analytically            !
 !       R14         0.9719   calculate D2E/DX2 analytically            !
 !       A2        124.7962   calculate D2E/DX2 analytically            !
 !       A3        111.5366   calculate D2E/DX2 analytically            !
 !       A4        124.6588   calculate D2E/DX2 analytically            !
 !       A5        103.1242   calculate D2E/DX2 analytically            !
 !       A6        112.9213   calculate D2E/DX2 analytically            !
 !       A7        110.1874   calculate D2E/DX2 analytically            !
 !       A8        105.5119   calculate D2E/DX2 analytically            !
 !       A9        109.1099   calculate D2E/DX2 analytically            !
 !       A10       112.7881   calculate D2E/DX2 analytically            !
 !       A11       112.8228   calculate D2E/DX2 analytically            !
 !       A12       112.304    calculate D2E/DX2 analytically            !
 !       A13        88.1873   calculate D2E/DX2 analytically            !
 !       A14        99.7402   calculate D2E/DX2 analytically            !
 !       D3        180.0392   calculate D2E/DX2 analytically            !
 !       D4        182.8588   calculate D2E/DX2 analytically            !
 !       D5         15.0779   calculate D2E/DX2 analytically            !
 !       D6        122.2629   calculate D2E/DX2 analytically            !
 !       D7        240.6483   calculate D2E/DX2 analytically            !
 !       D8        338.6397   calculate D2E/DX2 analytically            !
 !       D9        117.5297   calculate D2E/DX2 analytically            !
 !       D10       236.3438   calculate D2E/DX2 analytically            !
 !       D11       142.1976   calculate D2E/DX2 analytically            !
 !       D12       121.199    calculate D2E/DX2 analytically            !
 !       D13       277.7256   calculate D2E/DX2 analytically            !
 !       D14       346.3837   calculate D2E/DX2 analytically            !
 ------------------------------------------------------------------------
 Trust Radius=3.00D-01 FncErr=1.00D-07 GrdErr=1.00D-07 EigMax=2.50D+02 EigMin=1.00D-04
 Number of steps in this run=     60 maximum allowed number of steps=    100.
 Search for a saddle point of order  1.
 GradGradGradGradGradGradGradGradGradGradGradGradGradGradGradGradGradGrad

 Leave Link  103 at Mon Sep  1 10:26:57 2025, MaxMem=  2013265920 cpu:               0.1 elap:               0.0
 (Enter /apps/eb/gaussian/16-AVX2/g16/l202.exe)
 ---------------------------------------------------------------------------------------------------
                            Z-MATRIX (ANGSTROMS AND DEGREES)
   CD    Cent   Atom    N1       Length/X        N2       Alpha/Y        N3        Beta/Z          J
 ---------------------------------------------------------------------------------------------------
      1      1  C 
      2      2  C        1   1.347780(     1)
      3      3  H        1   1.090085(     2)      2  124.796(    15)
      4      4  C        2   1.506698(     3)      1  111.537(    16)      3  180.039(    28)      0
      5      5  H        2   1.092221(     4)      1  124.659(    17)      4  182.859(    29)      0
      6      6  C        4   1.543497(     5)      2  103.124(    18)      1   15.078(    30)      0
      7      7  H        4   1.101461(     6)      2  112.921(    19)      6  122.263(    31)      0
      8      8  H        4   1.106153(     7)      2  110.187(    20)      6  240.648(    32)      0
      9      9  C        6   1.543621(     8)      4  105.512(    21)      2  338.640(    33)      0
     10     10  H        6   1.101145(     9)      4  109.110(    22)      9  117.530(    34)      0
     11     11  H        6   1.099008(    10)      4  112.788(    23)      9  236.344(    35)      0
     12     12  H        9   1.101007(    11)      6  112.823(    24)      4  142.198(    36)      0
     13     13  H        9   1.102024(    12)      6  112.304(    25)     12  121.199(    37)      0
     14     14  O        1   2.356078(    13)      2   88.187(    26)      3  277.726(    38)      0
     15     15  H       14   0.971852(    14)      1   99.740(    27)      2  346.384(    39)      0
 ---------------------------------------------------------------------------------------------------
                         Z-Matrix orientation:                         
 ---------------------------------------------------------------------
 Center     Atomic      Atomic             Coordinates (Angstroms)
 Number     Number       Type             X           Y           Z
 ---------------------------------------------------------------------
      1          6           0        0.000000    0.000000    0.000000
      2          6           0        0.000000    0.000000    1.347780
      3          1           0        0.895164    0.000000   -0.622067
      4          6           0       -1.401504   -0.000959    1.900883
      5          1           0        0.897261    0.045422    1.968913
      6          6           0       -2.260053   -0.392572    0.679443
      7          1           0       -1.526193   -0.688500    2.752327
      8          1           0       -1.663299    1.005012    2.279116
      9          6           0       -1.398350   -0.055279   -0.556061
     10          1           0       -2.453405   -1.476252    0.707249
     11          1           0       -3.237928    0.108876    0.668108
     12          1           0       -1.504338   -0.794282   -1.365294
     13          1           0       -1.645922    0.930412   -0.982181
     14          8           0        0.316565    2.333524    0.074528
     15          1           0        0.111251    2.497502    1.010185
 ---------------------------------------------------------------------
                    Distance matrix (angstroms):
                    1          2          3          4          5
     1  C    0.000000
     2  C    1.347780   0.000000
     3  H    1.090085   2.163704   0.000000
     4  C    2.361689   1.506698   3.411739   0.000000
     5  H    2.164200   1.092221   2.591379   2.300239   0.000000
     6  C    2.392403   2.389273   3.435612   1.543497   3.438488
     7  H    3.221584   2.185418   4.209933   1.101461   2.650567
     8  H    2.995160   2.154994   3.996579   1.106153   2.752001
     9  C    1.505870   2.362848   2.295129   2.457547   3.414010
    10  H    2.949359   2.934075   3.893496   2.169734   3.890276
    11  H    3.307930   3.310285   4.331149   2.214554   4.335425
    12  H    2.181271   3.202294   2.634554   3.362715   4.194010
    13  H    2.130588   3.000574   2.729920   3.039614   3.994990
    14  O    2.356078   2.677073   2.503070   3.425952   3.026767
    15  H    2.696362   2.522670   3.084848   3.053536   2.747667
                    6          7          8          9         10
     6  C    0.000000
     7  H    2.218778   0.000000
     8  H    2.206425   1.763720   0.000000
     9  C    1.543621   3.370867   3.038526   0.000000
    10  H    1.101145   2.379626   3.041661   2.174455   0.000000
    11  H    1.099008   2.812439   2.424430   2.215758   1.769078
    12  H    2.216624   4.119038   4.067487   1.101007   2.379337
    13  H    2.210981   4.072071   3.262197   1.102024   3.049300
    14  O    3.799537   4.438355   3.247309   3.007484   4.752627
    15  H    3.752999   3.983327   2.643244   3.353910   4.739193
                   11         12         13         14         15
    11  H    0.000000
    12  H    2.820594   0.000000
    13  H    2.435746   1.772396   0.000000
    14  O    4.235070   3.895118   2.633764   0.000000
    15  H    4.127899   4.369081   3.084307   0.971852   0.000000
 Stoichiometry    C5H9O(2)
 Framework group  C1[X(C5H9O)]
 Deg. of freedom    39
 Full point group                 C1      NOp   1
 Largest Abelian subgroup         C1      NOp   1
 Largest concise Abelian subgroup C1      NOp   1
                         Standard orientation:                         
 ---------------------------------------------------------------------
 Center     Atomic      Atomic             Coordinates (Angstroms)
 Number     Number       Type             X           Y           Z
 ---------------------------------------------------------------------
      1          6           0       -0.449460    0.387831    0.880909
      2          6           0       -0.131427   -0.913050    0.729006
      3          1           0       -1.222751    0.765121    1.550206
      4          6           0        0.980613   -1.097488   -0.270738
      5          1           0       -0.643452   -1.739815    1.226236
      6          6           0        1.557279    0.326418   -0.420175
      7          1           0        1.732306   -1.833862    0.054726
      8          1           0        0.574901   -1.476843   -1.227327
      9          6           0        0.435266    1.277470    0.048175
     10          1           0        2.429738    0.433458    0.243058
     11          1           0        1.900939    0.541458   -1.441681
     12          1           0        0.816698    2.143394    0.611116
     13          1           0       -0.156530    1.672537   -0.793345
     14          8           0       -2.226601    0.052484   -0.629195
     15          1           0       -1.972669   -0.812403   -0.992494
 ---------------------------------------------------------------------
 Rotational constants (GHZ):           5.0764077           2.8256376           2.4147104
 Leave Link  202 at Mon Sep  1 10:26:57 2025, MaxMem=  2013265920 cpu:               0.0 elap:               0.0
 (Enter /apps/eb/gaussian/16-AVX2/g16/l301.exe)
 Standard basis: def2TZVPP (5D, 7F)
 Ernie: Thresh=  0.10000D-02 Tol=  0.10000D-05 Strict=F.
 There are   351 symmetry adapted cartesian basis functions of A   symmetry.
 There are   312 symmetry adapted basis functions of A   symmetry.
   312 basis functions,   459 primitive gaussians,   351 cartesian basis functions
    24 alpha electrons       23 beta electrons
       nuclear repulsion energy       234.6715545439 Hartrees.
 IExCor= 1004 DFT=T Ex=PBE+HF Corr=P86 ExCW=0 ScaHFX=  0.690000
 ScaDFX=  0.310000  0.310000  0.429600  0.429600 ScalE2=  0.079900  0.578500
 IRadAn=      5 IRanWt=     -1 IRanGd=            0 ICorTp=0 IEmpDi=141
 NAtoms=   15 NActive=   15 NUniq=   15 SFac= 1.00D+00 NAtFMM=   60 NAOKFM=F Big=F
 Integral buffers will be    131072 words long.
 Regular integral format.
 Two-electron integral symmetry is turned on.
 R6DIni: Non-standard D2/D3 S6 parameter, value=     0.437700
 R6DIni: Non-standard D2/D3 S8 parameter, value=    -1.000000
 R6DIni: Non-standard D3BJ A1 parameter, value=    -1.000000
 R6DIni: Non-standard D3BJ A2 parameter, value=     5.500000
 R6Disp:  Grimme-D3(BJ) Dispersion energy=       -0.0082717665 Hartrees.
 Nuclear repulsion after empirical dispersion term =      234.6632827774 Hartrees.
 Leave Link  301 at Mon Sep  1 10:26:57 2025, MaxMem=  2013265920 cpu:               0.2 elap:               0.0
 (Enter /apps/eb/gaussian/16-AVX2/g16/l302.exe)
 NPDir=0 NMtPBC=     1 NCelOv=     1 NCel=       1 NClECP=     1 NCelD=      1
         NCelK=      1 NCelE2=     1 NClLst=     1 CellRange=     0.0.
 One-electron integrals computed using PRISM.
 One-electron integral symmetry used in STVInt
   1 Symmetry operations used in ECPInt.
 ECPInt:  NShTT=    7260 NPrTT=   18687 LenC2=    7207 LenP2D=   15946.
 LDataN:  DoStor=T MaxTD1= 6 Len=  172
 NBasis=   312 RedAO= T EigKep=  6.69D-05  NBF=   312
 NBsUse=   312 1.00D-06 EigRej= -1.00D+00 NBFU=   312
 Precomputing XC quadrature grid using
 IXCGrd= 4 IRadAn=           5 IRanWt=          -1 IRanGd=           0 AccXCQ= 0.00D+00.
 Generated NRdTot=       0 NPtTot=           0 NUsed=           0 NTot=          32
 NSgBfM=   350   350   350   350   350 MxSgAt=    15 MxSgA2=    15.
 Leave Link  302 at Mon Sep  1 10:26:57 2025, MaxMem=  2013265920 cpu:               2.4 elap:               0.3
 (Enter /apps/eb/gaussian/16-AVX2/g16/l303.exe)
 DipDrv:  MaxL=1.
 Leave Link  303 at Mon Sep  1 10:26:57 2025, MaxMem=  2013265920 cpu:               0.2 elap:               0.1
 (Enter /apps/eb/gaussian/16-AVX2/g16/l401.exe)
 ExpMin= 9.52D-02 ExpMax= 2.70D+04 ExpMxC= 9.22D+02 IAcc=3 IRadAn=         5 AccDes= 0.00D+00
 Harris functional with IExCor= 1004 and IRadAn=       5 diagonalized for initial guess.
 HarFok:  IExCor= 1004 AccDes= 0.00D+00 IRadAn=         5 IDoV= 1 UseB2=F ITyADJ=14
 ICtDFT=  3500011 ScaDFX=  1.000000  1.000000  1.000000  1.000000
 FoFCou: FMM=F IPFlag=           0 FMFlag=      100000 FMFlg1=           0
         NFxFlg=           0 DoJE=T BraDBF=F KetDBF=T FulRan=T
         wScrn=  0.000000 ICntrl=       500 IOpCl=  0 I1Cent=   200000004 NGrid=           0
         NMat0=    1 NMatS0=      1 NMatT0=    0 NMatD0=    1 NMtDS0=    0 NMtDT0=    0
 Petite list used in FoFCou.
 Harris En= -271.112620427570    
 JPrj=0 DoOrth=F DoCkMO=F.
 Initial guess <Sx>= 0.0000 <Sy>= 0.0000 <Sz>= 0.5000 <S**2>= 0.7500 S= 0.5000
 Leave Link  401 at Mon Sep  1 10:26:59 2025, MaxMem=  2013265920 cpu:              11.4 elap:               1.5
 (Enter /apps/eb/gaussian/16-AVX2/g16/l502.exe)
 Integral symmetry usage will be decided dynamically.
 UHF open shell SCF:
 Using DIIS extrapolation, IDIIS=  1040.
 NGot=  2013265920 LenX=  2013013196 LenY=  2012889554
 Requested convergence on RMS density matrix=1.00D-08 within  32 cycles.
 Requested convergence on MAX density matrix=1.00D-06.
 Requested convergence on             energy=1.00D-06.
 No special actions if energy rises.
 Fock matrices will be formed incrementally for  20 cycles.
 Integral accuracy reduced to 1.0D-05 until final iterations.

 Cycle   1  Pass 0  IDiag  1:
 FoFJK:  IHMeth= 1 ICntrl=       0 DoSepK=F KAlg= 0 I1Cent=           0 FoldK=F
 IRaf= 980000000 NMat=       1 IRICut=       1 DoRegI=T DoRafI=F ISym2E= 0 IDoP0=0 IntGTp=1.
 FoFCou: FMM=F IPFlag=           0 FMFlag=      100000 FMFlg1=           0
         NFxFlg=           0 DoJE=F BraDBF=F KetDBF=F FulRan=T
         wScrn=  0.000000 ICntrl=         0 IOpCl=  1 I1Cent=           0 NGrid=           0
         NMat0=    1 NMatS0=      1 NMatT0=    0 NMatD0=    1 NMtDS0=    0 NMtDT0=    0
 Symmetry not used in FoFCou.
 E= -269.824083894592    
 DIIS: error= 3.21D-02 at cycle   1 NSaved=   1.
 NSaved= 1 IEnMin= 1 EnMin= -269.824083894592     IErMin= 1 ErrMin= 3.21D-02
 ErrMax= 3.21D-02  0.00D+00 EMaxC= 1.00D-01 BMatC= 1.32D+00 BMatP= 1.32D+00
 IDIUse=3 WtCom= 6.79D-01 WtEn= 3.21D-01
 Coeff-Com:  0.100D+01
 Coeff-En:   0.100D+01
 Coeff:      0.100D+01
 Gap=     0.327 Goal=   None    Shift=    0.000
 Gap=     0.206 Goal=   None    Shift=    0.000
 GapD=    0.206 DampG=1.000 DampE=0.500 DampFc=0.5000 IDamp=-1.
 Damping current iteration by 5.00D-01
 RMSDP=3.70D-03 MaxDP=2.77D-01              OVMax= 4.03D-01

 Cycle   2  Pass 0  IDiag  1:
 RMSU=  1.85D-03    CP:  9.84D-01
 E= -269.956425536334     Delta-E=       -0.132341641742 Rises=F Damp=T
 DIIS: error= 8.87D-03 at cycle   2 NSaved=   2.
 NSaved= 2 IEnMin= 2 EnMin= -269.956425536334     IErMin= 2 ErrMin= 8.87D-03
 ErrMax= 8.87D-03  0.00D+00 EMaxC= 1.00D-01 BMatC= 1.46D-01 BMatP= 1.32D+00
 IDIUse=3 WtCom= 9.11D-01 WtEn= 8.87D-02
 Coeff-Com: -0.890D-01 0.109D+01
 Coeff-En:   0.000D+00 0.100D+01
 Coeff:     -0.811D-01 0.108D+01
 Gap=     0.493 Goal=   None    Shift=    0.000
 Gap=     0.358 Goal=   None    Shift=    0.000
 RMSDP=1.25D-03 MaxDP=1.10D-01 DE=-1.32D-01 OVMax= 1.52D-01

 Cycle   3  Pass 0  IDiag  1:
 RMSU=  9.96D-04    CP:  9.67D-01  6.01D-01
 E= -270.095550944578     Delta-E=       -0.139125408244 Rises=F Damp=F
 DIIS: error= 6.44D-03 at cycle   3 NSaved=   3.
 NSaved= 3 IEnMin= 3 EnMin= -270.095550944578     IErMin= 3 ErrMin= 6.44D-03
 ErrMax= 6.44D-03  0.00D+00 EMaxC= 1.00D-01 BMatC= 2.76D-02 BMatP= 1.46D-01
 IDIUse=3 WtCom= 9.36D-01 WtEn= 6.44D-02
 Coeff-Com: -0.850D-01 0.275D+00 0.810D+00
 Coeff-En:   0.000D+00 0.000D+00 0.100D+01
 Coeff:     -0.795D-01 0.257D+00 0.823D+00
 Gap=     0.400 Goal=   None    Shift=    0.000
 Gap=     0.275 Goal=   None    Shift=    0.000
 RMSDP=3.19D-04 MaxDP=1.96D-02 DE=-1.39D-01 OVMax= 1.51D-01

 Cycle   4  Pass 0  IDiag  1:
 RMSU=  3.03D-04    CP:  9.65D-01  6.49D-01  1.05D+00
 E= -270.106967280251     Delta-E=       -0.011416335672 Rises=F Damp=F
 DIIS: error= 3.18D-03 at cycle   4 NSaved=   4.
 NSaved= 4 IEnMin= 4 EnMin= -270.106967280251     IErMin= 4 ErrMin= 3.18D-03
 ErrMax= 3.18D-03  0.00D+00 EMaxC= 1.00D-01 BMatC= 1.58D-02 BMatP= 2.76D-02
 IDIUse=3 WtCom= 9.68D-01 WtEn= 3.18D-02
 Coeff-Com: -0.154D-01-0.758D-02 0.433D+00 0.590D+00
 Coeff-En:   0.000D+00 0.000D+00 0.000D+00 0.100D+01
 Coeff:     -0.149D-01-0.734D-02 0.419D+00 0.603D+00
 Gap=     0.404 Goal=   None    Shift=    0.000
 Gap=     0.293 Goal=   None    Shift=    0.000
 RMSDP=2.98D-04 MaxDP=1.36D-02 DE=-1.14D-02 OVMax= 3.57D-02

 Cycle   5  Pass 0  IDiag  1:
 RMSU=  2.33D-04    CP:  9.61D-01  5.58D-01  1.12D+00  9.88D-01
 E= -270.112428948185     Delta-E=       -0.005461667935 Rises=F Damp=F
 DIIS: error= 2.41D-03 at cycle   5 NSaved=   5.
 NSaved= 5 IEnMin= 5 EnMin= -270.112428948185     IErMin= 5 ErrMin= 2.41D-03
 ErrMax= 2.41D-03  0.00D+00 EMaxC= 1.00D-01 BMatC= 2.72D-03 BMatP= 1.58D-02
 IDIUse=3 WtCom= 9.76D-01 WtEn= 2.41D-02
 Coeff-Com:  0.346D-01-0.766D-01-0.188D+00-0.397D+00 0.163D+01
 Coeff-En:   0.000D+00 0.000D+00 0.000D+00 0.000D+00 0.100D+01
 Coeff:      0.338D-01-0.748D-01-0.183D+00-0.387D+00 0.161D+01
 Gap=     0.402 Goal=   None    Shift=    0.000
 Gap=     0.315 Goal=   None    Shift=    0.000
 RMSDP=3.55D-04 MaxDP=1.11D-02 DE=-5.46D-03 OVMax= 9.21D-02

 Cycle   6  Pass 0  IDiag  1:
 RMSU=  1.13D-04    CP:  9.56D-01  4.53D-01  1.16D+00  1.29D+00  2.10D+00
 E= -270.116405793462     Delta-E=       -0.003976845277 Rises=F Damp=F
 DIIS: error= 1.46D-03 at cycle   6 NSaved=   6.
 NSaved= 6 IEnMin= 6 EnMin= -270.116405793462     IErMin= 6 ErrMin= 1.46D-03
 ErrMax= 1.46D-03  0.00D+00 EMaxC= 1.00D-01 BMatC= 4.75D-04 BMatP= 2.72D-03
 IDIUse=3 WtCom= 9.85D-01 WtEn= 1.46D-02
 Coeff-Com: -0.160D-02 0.206D-01-0.630D-01-0.187D+00-0.108D+00 0.134D+01
 Coeff-En:   0.000D+00 0.000D+00 0.000D+00 0.000D+00 0.000D+00 0.100D+01
 Coeff:     -0.157D-02 0.203D-01-0.620D-01-0.184D+00-0.107D+00 0.133D+01
 Gap=     0.393 Goal=   None    Shift=    0.000
 Gap=     0.329 Goal=   None    Shift=    0.000
 RMSDP=2.07D-04 MaxDP=7.95D-03 DE=-3.98D-03 OVMax= 5.19D-02

 Cycle   7  Pass 0  IDiag  1:
 RMSU=  5.14D-05    CP:  9.54D-01  4.04D-01  1.14D+00  1.40D+00  2.74D+00
                    CP:  1.77D+00
 E= -270.117229365740     Delta-E=       -0.000823572278 Rises=F Damp=F
 DIIS: error= 4.71D-04 at cycle   7 NSaved=   7.
 NSaved= 7 IEnMin= 7 EnMin= -270.117229365740     IErMin= 7 ErrMin= 4.71D-04
 ErrMax= 4.71D-04  0.00D+00 EMaxC= 1.00D-01 BMatC= 4.43D-05 BMatP= 4.75D-04
 IDIUse=3 WtCom= 9.95D-01 WtEn= 4.71D-03
 Coeff-Com: -0.501D-02 0.417D-02 0.495D-01 0.132D+00-0.115D+00-0.486D+00
 Coeff-Com:  0.142D+01
 Coeff-En:   0.000D+00 0.000D+00 0.000D+00 0.000D+00 0.000D+00 0.000D+00
 Coeff-En:   0.100D+01
 Coeff:     -0.499D-02 0.415D-02 0.493D-01 0.131D+00-0.114D+00-0.483D+00
 Coeff:      0.142D+01
 Gap=     0.392 Goal=   None    Shift=    0.000
 Gap=     0.326 Goal=   None    Shift=    0.000
 RMSDP=5.38D-05 MaxDP=3.45D-03 DE=-8.24D-04 OVMax= 8.13D-03

 Cycle   8  Pass 0  IDiag  1:
 RMSU=  1.94D-05    CP:  9.53D-01  4.03D-01  1.13D+00  1.40D+00  2.77D+00
                    CP:  2.09D+00  1.59D+00
 E= -270.117274156529     Delta-E=       -0.000044790789 Rises=F Damp=F
 DIIS: error= 1.13D-04 at cycle   8 NSaved=   8.
 NSaved= 8 IEnMin= 8 EnMin= -270.117274156529     IErMin= 8 ErrMin= 1.13D-04
 ErrMax= 1.13D-04  0.00D+00 EMaxC= 1.00D-01 BMatC= 2.33D-05 BMatP= 4.43D-05
 IDIUse=3 WtCom= 9.99D-01 WtEn= 1.13D-03
 Coeff-Com:  0.214D-03-0.237D-02 0.149D-01 0.149D-01-0.248D-01-0.173D+00
 Coeff-Com:  0.253D+00 0.917D+00
 Coeff-En:   0.000D+00 0.000D+00 0.000D+00 0.000D+00 0.000D+00 0.000D+00
 Coeff-En:   0.000D+00 0.100D+01
 Coeff:      0.214D-03-0.237D-02 0.148D-01 0.149D-01-0.248D-01-0.173D+00
 Coeff:      0.253D+00 0.917D+00
 Gap=     0.391 Goal=   None    Shift=    0.000
 Gap=     0.328 Goal=   None    Shift=    0.000
 RMSDP=2.88D-05 MaxDP=9.78D-04 DE=-4.48D-05 OVMax= 5.24D-03

 Cycle   9  Pass 0  IDiag  1:
 RMSU=  5.72D-06    CP:  9.53D-01  3.95D-01  1.13D+00  1.40D+00  2.85D+00
                    CP:  2.20D+00  1.74D+00  1.12D+00
 E= -270.117288240789     Delta-E=       -0.000014084260 Rises=F Damp=F
 DIIS: error= 5.11D-05 at cycle   9 NSaved=   9.
 NSaved= 9 IEnMin= 9 EnMin= -270.117288240789     IErMin= 9 ErrMin= 5.11D-05
 ErrMax= 5.11D-05  0.00D+00 EMaxC= 1.00D-01 BMatC= 1.98D-06 BMatP= 2.33D-05
 IDIUse=1 WtCom= 1.00D+00 WtEn= 0.00D+00
 Coeff-Com:  0.115D-02-0.115D-02-0.919D-02-0.283D-01 0.207D-01 0.937D-01
 Coeff-Com: -0.262D+00 0.776D-01 0.111D+01
 Coeff:      0.115D-02-0.115D-02-0.919D-02-0.283D-01 0.207D-01 0.937D-01
 Coeff:     -0.262D+00 0.776D-01 0.111D+01
 Gap=     0.391 Goal=   None    Shift=    0.000
 Gap=     0.329 Goal=   None    Shift=    0.000
 RMSDP=9.08D-06 MaxDP=2.46D-04 DE=-1.41D-05 OVMax= 1.52D-03

 Initial convergence to 1.0D-05 achieved.  Increase integral accuracy.
 Cycle  10  Pass 1  IDiag  1:
 E= -270.117285846197     Delta-E=        0.000002394593 Rises=F Damp=F
 DIIS: error= 4.25D-05 at cycle   1 NSaved=   1.
 NSaved= 1 IEnMin= 1 EnMin= -270.117285846197     IErMin= 1 ErrMin= 4.25D-05
 ErrMax= 4.25D-05  0.00D+00 EMaxC= 1.00D-01 BMatC= 3.10D-06 BMatP= 3.10D-06
 IDIUse=1 WtCom= 1.00D+00 WtEn= 0.00D+00
 Coeff-Com:  0.100D+01
 Coeff:      0.100D+01
 Gap=     0.391 Goal=   None    Shift=    0.000
 Gap=     0.329 Goal=   None    Shift=    0.000
 RMSDP=9.08D-06 MaxDP=2.46D-04 DE= 2.39D-06 OVMax= 8.31D-04

 Cycle  11  Pass 1  IDiag  1:
 RMSU=  1.39D-05    CP:  1.00D+00
 E= -270.117287551328     Delta-E=       -0.000001705131 Rises=F Damp=F
 DIIS: error= 3.70D-05 at cycle   2 NSaved=   2.
 NSaved= 2 IEnMin= 2 EnMin= -270.117287551328     IErMin= 2 ErrMin= 3.70D-05
 ErrMax= 3.70D-05  0.00D+00 EMaxC= 1.00D-01 BMatC= 1.19D-06 BMatP= 3.10D-06
 IDIUse=1 WtCom= 1.00D+00 WtEn= 0.00D+00
 Coeff-Com:  0.241D+00 0.759D+00
 Coeff:      0.241D+00 0.759D+00
 Gap=     0.391 Goal=   None    Shift=    0.000
 Gap=     0.329 Goal=   None    Shift=    0.000
 RMSDP=2.11D-06 MaxDP=1.02D-04 DE=-1.71D-06 OVMax= 6.72D-04

 Cycle  12  Pass 1  IDiag  1:
 RMSU=  2.06D-06    CP:  1.00D+00  1.03D+00
 E= -270.117288532145     Delta-E=       -0.000000980816 Rises=F Damp=F
 DIIS: error= 3.24D-05 at cycle   3 NSaved=   3.
 NSaved= 3 IEnMin= 3 EnMin= -270.117288532145     IErMin= 3 ErrMin= 3.24D-05
 ErrMax= 3.24D-05  0.00D+00 EMaxC= 1.00D-01 BMatC= 7.07D-07 BMatP= 1.19D-06
 IDIUse=1 WtCom= 1.00D+00 WtEn= 0.00D+00
 Coeff-Com: -0.154D+00 0.191D+00 0.963D+00
 Coeff:     -0.154D+00 0.191D+00 0.963D+00
 Gap=     0.391 Goal=   None    Shift=    0.000
 Gap=     0.329 Goal=   None    Shift=    0.000
 RMSDP=2.63D-06 MaxDP=1.21D-04 DE=-9.81D-07 OVMax= 7.50D-04

 Cycle  13  Pass 1  IDiag  1:
 RMSU=  1.79D-06    CP:  1.00D+00  1.10D+00  1.83D+00
 E= -270.117289628266     Delta-E=       -0.000001096122 Rises=F Damp=F
 DIIS: error= 2.82D-05 at cycle   4 NSaved=   4.
 NSaved= 4 IEnMin= 4 EnMin= -270.117289628266     IErMin= 4 ErrMin= 2.82D-05
 ErrMax= 2.82D-05  0.00D+00 EMaxC= 1.00D-01 BMatC= 4.47D-07 BMatP= 7.07D-07
 IDIUse=1 WtCom= 1.00D+00 WtEn= 0.00D+00
 Coeff-Com:  0.391D-01-0.948D+00-0.207D+01 0.398D+01
 Coeff:      0.391D-01-0.948D+00-0.207D+01 0.398D+01
 Gap=     0.391 Goal=   None    Shift=    0.000
 Gap=     0.329 Goal=   None    Shift=    0.000
 RMSDP=9.73D-06 MaxDP=4.53D-04 DE=-1.10D-06 OVMax= 2.92D-03

 Cycle  14  Pass 1  IDiag  1:
 RMSU=  5.76D-06    CP:  1.00D+00  1.25D+00  3.00D+00  3.00D+00
 E= -270.117292375242     Delta-E=       -0.000002746976 Rises=F Damp=F
 DIIS: error= 1.72D-05 at cycle   5 NSaved=   5.
 NSaved= 5 IEnMin= 5 EnMin= -270.117292375242     IErMin= 5 ErrMin= 1.72D-05
 ErrMax= 1.72D-05  0.00D+00 EMaxC= 1.00D-01 BMatC= 1.31D-07 BMatP= 4.47D-07
 IDIUse=1 WtCom= 1.00D+00 WtEn= 0.00D+00
 Coeff-Com:  0.430D-01-0.207D+00-0.434D+00 0.507D+00 0.109D+01
 Coeff:      0.430D-01-0.207D+00-0.434D+00 0.507D+00 0.109D+01
 Gap=     0.391 Goal=   None    Shift=    0.000
 Gap=     0.329 Goal=   None    Shift=    0.000
 RMSDP=3.06D-06 MaxDP=1.43D-04 DE=-2.75D-06 OVMax= 9.28D-04

 Cycle  15  Pass 1  IDiag  1:
 RMSU=  9.09D-07    CP:  1.00D+00  1.28D+00  3.00D+00  3.00D+00  1.50D+00
 E= -270.117292817640     Delta-E=       -0.000000442398 Rises=F Damp=F
 DIIS: error= 1.56D-05 at cycle   6 NSaved=   6.
 NSaved= 6 IEnMin= 6 EnMin= -270.117292817640     IErMin= 6 ErrMin= 1.56D-05
 ErrMax= 1.56D-05  0.00D+00 EMaxC= 1.00D-01 BMatC= 7.55D-08 BMatP= 1.31D-07
 IDIUse=1 WtCom= 1.00D+00 WtEn= 0.00D+00
 Coeff-Com: -0.213D-01 0.753D+00 0.187D+01-0.352D+01 0.292D+00 0.162D+01
 Coeff:     -0.213D-01 0.753D+00 0.187D+01-0.352D+01 0.292D+00 0.162D+01
 Gap=     0.391 Goal=   None    Shift=    0.000
 Gap=     0.329 Goal=   None    Shift=    0.000
 RMSDP=3.58D-06 MaxDP=1.83D-04 DE=-4.42D-07 OVMax= 9.12D-04

 Cycle  16  Pass 1  IDiag  1:
 RMSU=  1.08D-06    CP:  1.00D+00  1.30D+00  3.00D+00  3.00D+00  2.06D+00
                    CP:  2.23D+00
 E= -270.117293134737     Delta-E=       -0.000000317097 Rises=F Damp=F
 DIIS: error= 1.16D-05 at cycle   7 NSaved=   7.
 NSaved= 7 IEnMin= 7 EnMin= -270.117293134737     IErMin= 7 ErrMin= 1.16D-05
 ErrMax= 1.16D-05  0.00D+00 EMaxC= 1.00D-01 BMatC= 2.37D-08 BMatP= 7.55D-08
 IDIUse=1 WtCom= 1.00D+00 WtEn= 0.00D+00
 Coeff-Com: -0.782D-02 0.132D+00 0.330D+00-0.570D+00-0.104D+00 0.224D+00
 Coeff-Com:  0.996D+00
 Coeff:     -0.782D-02 0.132D+00 0.330D+00-0.570D+00-0.104D+00 0.224D+00
 Coeff:      0.996D+00
 Gap=     0.391 Goal=   None    Shift=    0.000
 Gap=     0.329 Goal=   None    Shift=    0.000
 RMSDP=7.98D-07 MaxDP=6.11D-05 DE=-3.17D-07 OVMax= 2.79D-04

 Cycle  17  Pass 1  IDiag  1:
 RMSU=  2.69D-07    CP:  1.00D+00  1.31D+00  3.00D+00  3.00D+00  2.15D+00
                    CP:  2.60D+00  1.36D+00
 E= -270.117293199963     Delta-E=       -0.000000065226 Rises=F Damp=F
 DIIS: error= 1.03D-05 at cycle   8 NSaved=   8.
 NSaved= 8 IEnMin= 8 EnMin= -270.117293199963     IErMin= 8 ErrMin= 1.03D-05
 ErrMax= 1.03D-05  0.00D+00 EMaxC= 1.00D-01 BMatC= 1.86D-08 BMatP= 2.37D-08
 IDIUse=1 WtCom= 1.00D+00 WtEn= 0.00D+00
 Coeff-Com:  0.116D-01-0.420D+00-0.105D+01 0.196D+01-0.152D+00-0.886D+00
 Coeff-Com: -0.344D-01 0.157D+01
 Coeff:      0.116D-01-0.420D+00-0.105D+01 0.196D+01-0.152D+00-0.886D+00
 Coeff:     -0.344D-01 0.157D+01
 Gap=     0.391 Goal=   None    Shift=    0.000
 Gap=     0.329 Goal=   None    Shift=    0.000
 RMSDP=9.53D-07 MaxDP=8.68D-05 DE=-6.52D-08 OVMax= 4.07D-04

 Cycle  18  Pass 1  IDiag  1:
 RMSU=  2.70D-07    CP:  1.00D+00  1.31D+00  3.00D+00  3.00D+00  2.23D+00
                    CP:  3.00D+00  1.77D+00  2.89D+00
 E= -270.117293253180     Delta-E=       -0.000000053217 Rises=F Damp=F
 DIIS: error= 8.72D-06 at cycle   9 NSaved=   9.
 NSaved= 9 IEnMin= 9 EnMin= -270.117293253180     IErMin= 9 ErrMin= 8.72D-06
 ErrMax= 8.72D-06  0.00D+00 EMaxC= 1.00D-01 BMatC= 1.39D-08 BMatP= 1.86D-08
 IDIUse=1 WtCom= 1.00D+00 WtEn= 0.00D+00
 Coeff-Com:  0.303D-02-0.539D-02-0.332D-01 0.204D-01 0.122D+00 0.324D-01
 Coeff-Com: -0.936D+00-0.423D+00 0.222D+01
 Coeff:      0.303D-02-0.539D-02-0.332D-01 0.204D-01 0.122D+00 0.324D-01
 Coeff:     -0.936D+00-0.423D+00 0.222D+01
 Gap=     0.391 Goal=   None    Shift=    0.000
 Gap=     0.329 Goal=   None    Shift=    0.000
 RMSDP=1.47D-06 MaxDP=1.48D-04 DE=-5.32D-08 OVMax= 6.90D-04

 Cycle  19  Pass 1  IDiag  1:
 RMSU=  1.08D-06    CP:  1.00D+00  1.32D+00  3.00D+00  3.00D+00  2.32D+00
                    CP:  3.00D+00  2.33D+00  3.00D+00  3.00D+00
 E= -270.117293357128     Delta-E=       -0.000000103949 Rises=F Damp=F
 DIIS: error= 6.20D-06 at cycle  10 NSaved=  10.
 NSaved=10 IEnMin=10 EnMin= -270.117293357128     IErMin=10 ErrMin= 6.20D-06
 ErrMax= 6.20D-06  0.00D+00 EMaxC= 1.00D-01 BMatC= 8.50D-09 BMatP= 1.39D-08
 IDIUse=1 WtCom= 1.00D+00 WtEn= 0.00D+00
 Coeff-Com: -0.152D-01 0.472D+00 0.115D+01-0.215D+01 0.734D-01 0.997D+00
 Coeff-Com:  0.534D+00-0.153D+01-0.123D+01 0.269D+01
 Coeff:     -0.152D-01 0.472D+00 0.115D+01-0.215D+01 0.734D-01 0.997D+00
 Coeff:      0.534D+00-0.153D+01-0.123D+01 0.269D+01
 Gap=     0.391 Goal=   None    Shift=    0.000
 Gap=     0.329 Goal=   None    Shift=    0.000
 RMSDP=2.25D-06 MaxDP=2.35D-04 DE=-1.04D-07 OVMax= 1.08D-03

 Cycle  20  Pass 1  IDiag  1:
 RMSU=  1.06D-06    CP:  1.00D+00  1.32D+00  3.00D+00  3.00D+00  2.43D+00
                    CP:  3.00D+00  2.99D+00  3.00D+00  3.00D+00  2.61D+00
 E= -270.117293443348     Delta-E=       -0.000000086220 Rises=F Damp=F
 DIIS: error= 3.20D-06 at cycle  11 NSaved=  11.
 NSaved=11 IEnMin=11 EnMin= -270.117293443348     IErMin=11 ErrMin= 3.20D-06
 ErrMax= 3.20D-06  0.00D+00 EMaxC= 1.00D-01 BMatC= 2.99D-09 BMatP= 8.50D-09
 IDIUse=1 WtCom= 1.00D+00 WtEn= 0.00D+00
 Coeff-Com: -0.321D-02 0.619D-01 0.159D+00-0.283D+00-0.553D-01 0.126D+00
 Coeff-Com:  0.543D+00 0.408D-01-0.135D+01 0.375D+00 0.139D+01
 Coeff:     -0.321D-02 0.619D-01 0.159D+00-0.283D+00-0.553D-01 0.126D+00
 Coeff:      0.543D+00 0.408D-01-0.135D+01 0.375D+00 0.139D+01
 Gap=     0.391 Goal=   None    Shift=    0.000
 Gap=     0.329 Goal=   None    Shift=    0.000
 RMSDP=1.33D-06 MaxDP=1.43D-04 DE=-8.62D-08 OVMax= 6.40D-04

 Cycle  21  Pass 1  IDiag  1:
 RMSU=  7.27D-07    CP:  1.00D+00  1.32D+00  3.00D+00  3.00D+00  2.49D+00
                    CP:  3.00D+00  3.00D+00  3.00D+00  3.00D+00  3.00D+00
                    CP:  1.60D+00
 E= -270.117293475857     Delta-E=       -0.000000032509 Rises=F Damp=F
 DIIS: error= 1.45D-06 at cycle  12 NSaved=  12.
 NSaved=12 IEnMin=12 EnMin= -270.117293475857     IErMin=12 ErrMin= 1.45D-06
 ErrMax= 1.45D-06  0.00D+00 EMaxC= 1.00D-01 BMatC= 9.48D-10 BMatP= 2.99D-09
 IDIUse=1 WtCom= 1.00D+00 WtEn= 0.00D+00
 Coeff-Com:  0.696D-02-0.221D+00-0.527D+00 0.992D+00-0.431D-01-0.468D+00
 Coeff-Com: -0.189D+00 0.715D+00 0.395D+00-0.111D+01 0.131D+00 0.132D+01
 Coeff:      0.696D-02-0.221D+00-0.527D+00 0.992D+00-0.431D-01-0.468D+00
 Coeff:     -0.189D+00 0.715D+00 0.395D+00-0.111D+01 0.131D+00 0.132D+01
 Gap=     0.391 Goal=   None    Shift=    0.000
 Gap=     0.329 Goal=   None    Shift=    0.000
 RMSDP=6.05D-07 MaxDP=6.60D-05 DE=-3.25D-08 OVMax= 2.85D-04

 Cycle  22  Pass 1  IDiag  1:
 RMSU=  9.44D-08    CP:  1.00D+00  1.33D+00  3.00D+00  3.00D+00  2.52D+00
                    CP:  3.00D+00  3.00D+00  3.00D+00  3.00D+00  3.00D+00
                    CP:  1.84D+00  1.70D+00
 E= -270.117293474423     Delta-E=        0.000000001434 Rises=F Damp=F
 DIIS: error= 7.08D-07 at cycle  13 NSaved=  13.
 NSaved=13 IEnMin=12 EnMin= -270.117293475857     IErMin=13 ErrMin= 7.08D-07
 ErrMax= 7.08D-07  0.00D+00 EMaxC= 1.00D-01 BMatC= 2.16D-10 BMatP= 9.48D-10
 IDIUse=1 WtCom= 1.00D+00 WtEn= 0.00D+00
 Coeff-Com: -0.824D-03 0.425D-01 0.108D+00-0.205D+00 0.385D-01 0.951D-01
 Coeff-Com: -0.919D-01-0.249D+00 0.245D+00 0.299D+00-0.458D+00-0.558D+00
 Coeff-Com:  0.173D+01
 Coeff:     -0.824D-03 0.425D-01 0.108D+00-0.205D+00 0.385D-01 0.951D-01
 Coeff:     -0.919D-01-0.249D+00 0.245D+00 0.299D+00-0.458D+00-0.558D+00
 Coeff:      0.173D+01
 Gap=     0.391 Goal=   None    Shift=    0.000
 Gap=     0.329 Goal=   None    Shift=    0.000
 RMSDP=2.46D-07 MaxDP=2.61D-05 DE= 1.43D-09 OVMax= 1.05D-04

 Cycle  23  Pass 1  IDiag  1:
 RMSU=  6.97D-08    CP:  1.00D+00  1.32D+00  3.00D+00  3.00D+00  2.53D+00
                    CP:  3.00D+00  3.00D+00  3.00D+00  3.00D+00  3.00D+00
                    CP:  1.91D+00  2.00D+00  1.55D+00
 E= -270.117293475195     Delta-E=       -0.000000000772 Rises=F Damp=F
 DIIS: error= 2.10D-07 at cycle  14 NSaved=  14.
 NSaved=14 IEnMin=12 EnMin= -270.117293475857     IErMin=14 ErrMin= 2.10D-07
 ErrMax= 2.10D-07  0.00D+00 EMaxC= 1.00D-01 BMatC= 2.45D-11 BMatP= 2.16D-10
 IDIUse=1 WtCom= 1.00D+00 WtEn= 0.00D+00
 Coeff-Com: -0.823D-03 0.288D-01 0.699D-01-0.132D+00 0.698D-02 0.608D-01
 Coeff-Com:  0.294D-01-0.883D-01-0.789D-01 0.164D+00-0.397D-02-0.204D+00
 Coeff-Com: -0.390D-02 0.115D+01
 Coeff:     -0.823D-03 0.288D-01 0.699D-01-0.132D+00 0.698D-02 0.608D-01
 Coeff:      0.294D-01-0.883D-01-0.789D-01 0.164D+00-0.397D-02-0.204D+00
 Coeff:     -0.390D-02 0.115D+01
 Gap=     0.391 Goal=   None    Shift=    0.000
 Gap=     0.329 Goal=   None    Shift=    0.000
 RMSDP=5.05D-08 MaxDP=4.99D-06 DE=-7.72D-10 OVMax= 1.93D-05

 Cycle  24  Pass 1  IDiag  1:
 RMSU=  1.36D-08    CP:  1.00D+00  1.32D+00  3.00D+00  3.00D+00  2.53D+00
                    CP:  3.00D+00  3.00D+00  3.00D+00  3.00D+00  3.00D+00
                    CP:  1.92D+00  2.05D+00  1.66D+00  1.29D+00
 E= -270.117293475236     Delta-E=       -0.000000000041 Rises=F Damp=F
 DIIS: error= 6.05D-08 at cycle  15 NSaved=  15.
 NSaved=15 IEnMin=12 EnMin= -270.117293475857     IErMin=15 ErrMin= 6.05D-08
 ErrMax= 6.05D-08  0.00D+00 EMaxC= 1.00D-01 BMatC= 4.26D-12 BMatP= 2.45D-11
 IDIUse=1 WtCom= 1.00D+00 WtEn= 0.00D+00
 Coeff-Com:  0.834D-04-0.535D-02-0.130D-01 0.251D-01-0.624D-02-0.124D-01
 Coeff-Com:  0.217D-01 0.408D-01-0.637D-01-0.345D-01 0.916D-01 0.751D-01
 Coeff-Com: -0.327D+00 0.155D+00 0.105D+01
 Coeff:      0.834D-04-0.535D-02-0.130D-01 0.251D-01-0.624D-02-0.124D-01
 Coeff:      0.217D-01 0.408D-01-0.637D-01-0.345D-01 0.916D-01 0.751D-01
 Coeff:     -0.327D+00 0.155D+00 0.105D+01
 Gap=     0.391 Goal=   None    Shift=    0.000
 Gap=     0.329 Goal=   None    Shift=    0.000
 RMSDP=1.28D-08 MaxDP=1.16D-06 DE=-4.10D-11 OVMax= 4.35D-06

 Cycle  25  Pass 1  IDiag  1:
 RMSU=  5.34D-09    CP:  1.00D+00  1.32D+00  3.00D+00  3.00D+00  2.53D+00
                    CP:  3.00D+00  3.00D+00  3.00D+00  3.00D+00  3.00D+00
                    CP:  1.92D+00  2.06D+00  1.67D+00  1.37D+00  1.26D+00
 E= -270.117293475241     Delta-E=       -0.000000000005 Rises=F Damp=F
 DIIS: error= 2.15D-08 at cycle  16 NSaved=  16.
 NSaved=16 IEnMin=12 EnMin= -270.117293475857     IErMin=16 ErrMin= 2.15D-08
 ErrMax= 2.15D-08  0.00D+00 EMaxC= 1.00D-01 BMatC= 5.26D-13 BMatP= 4.26D-12
 IDIUse=1 WtCom= 1.00D+00 WtEn= 0.00D+00
 Coeff-Com:  0.123D-03-0.422D-02-0.982D-02 0.188D-01-0.114D-02-0.885D-02
 Coeff-Com: -0.259D-02 0.136D-01 0.641D-02-0.217D-01 0.570D-02 0.263D-01
 Coeff-Com: -0.161D-01-0.145D+00 0.373D-01 0.110D+01
 Coeff:      0.123D-03-0.422D-02-0.982D-02 0.188D-01-0.114D-02-0.885D-02
 Coeff:     -0.259D-02 0.136D-01 0.641D-02-0.217D-01 0.570D-02 0.263D-01
 Coeff:     -0.161D-01-0.145D+00 0.373D-01 0.110D+01
 Gap=     0.391 Goal=   None    Shift=    0.000
 Gap=     0.329 Goal=   None    Shift=    0.000
 RMSDP=3.51D-09 MaxDP=1.29D-07 DE=-5.17D-12 OVMax= 6.90D-07

 SCF Done:  E(UPBE+HF-P86) =  -270.117293475     A.U. after   25 cycles
            NFock= 25  Conv=0.35D-08     -V/T= 2.0030
 <Sx>= 0.0000 <Sy>= 0.0000 <Sz>= 0.5000 <S**2>= 0.7861 S= 0.5179
 <L.S>=  0.00000000000    
 KE= 2.693217853532D+02 PE=-1.100399252427D+03 EE= 3.262968908211D+02
 Annihilation of the first spin contaminant:
 S**2 before annihilation     0.7861,   after     0.7504
 Leave Link  502 at Mon Sep  1 10:29:45 2025, MaxMem=  2013265920 cpu:            1314.8 elap:             166.3
 (Enter /apps/eb/gaussian/16-AVX2/g16/l508.exe)
 QCSCF skips out because SCF is already converged.
 Leave Link  508 at Mon Sep  1 10:29:45 2025, MaxMem=  2013265920 cpu:               0.0 elap:               0.0
 (Enter /apps/eb/gaussian/16-AVX2/g16/l801.exe)
 DoSCS=T DFT=T ScalE2(SS,OS)=  0.079900  0.578500
 ExpMin= 9.52D-02 ExpMax= 2.70D+04 ExpMxC= 9.22D+02 IAcc=3 IRadAn=         5 AccDes= 0.00D+00
 HarFok:  IExCor=  205 AccDes= 0.00D+00 IRadAn=         5 IDoV=-2 UseB2=F ITyADJ=14
 ICtDFT= 12500011 ScaDFX=  1.000000  1.000000  1.000000  1.000000
 Largest valence mixing into a core orbital is  1.21D-04
 Largest core mixing into a valence orbital is  2.65D-05
 Largest valence mixing into a core orbital is  1.16D-04
 Largest core mixing into a valence orbital is  2.62D-05
 Range of M.O.s used for correlation:     7   312
 NBasis=   312 NAE=    24 NBE=    23 NFC=     6 NFV=     0
 NROrb=    306 NOA=    18 NOB=    17 NVA=   288 NVB=   289

 **** Warning!!: The largest alpha MO coefficient is  0.20742975D+02


 **** Warning!!: The largest beta MO coefficient is  0.21693689D+02

 Leave Link  801 at Mon Sep  1 10:29:46 2025, MaxMem=  2013265920 cpu:               1.2 elap:               0.2
 (Enter /apps/eb/gaussian/16-AVX2/g16/l906.exe)
 DoSCS=T DFT=T ScalE2(SS,OS)=  0.079900  0.578500
 Frozen-core derivative calculation, NFC=   6 NFV=   0.
 FulOut=F Deriv=T AODrv=T NAtomX=    15
   MMem=           0  MDisk=          18 MDiskD=          18
  W3Min=     5256576 MinDsk=     9606677 NBas6D=         351
 NBas2D=       62469    NTT=       61776    LW2=     7400000
    MDV=  2011737245 MDiskM=       28628 NBas2p=       61841
 Disk-based method using ON**2 memory for 18 occupieds at a time.
 Permanent disk used for amplitudes=    67879440 words.
 Estimated scratch disk usage=  1396738148 words.
 IMap=   1   2   3   4   5   6   7   8   9  10  11  12  13  14  15  16  17  18  19  20
 IMap=  21  22  23  24
 Actual    scratch disk usage=  1350494308 words.
 JobTyp=2 Pass  1:  I=   7 to  24 NPSUse=  8 ParTrn=T ParDer=T DoDerP=T.
 (rs|ai) integrals will be sorted in core.
 IMap=   1   2   3   4   5   6   7   8   9  10  11  12  13  14  15  16  17  18  19  20
 IMap=  21  22  23
 Actual    scratch disk usage=  1350494308 words.
 JobTyp=3 Pass  1:  I=   7 to  23 NPSUse=  8 ParTrn=T ParDer=T DoDerP=T.
 (rs|ai) integrals will be sorted in core.
