 Entering Gaussian System, Link 0=g16
 Input=run.inp_2.22
 Output=run.out_2.22
 Initial command:
 /gpfs/fs1/soft/bebop/software/custom-built/gaussian/16-c.02/g16/l1.exe "/scratch/Gau-2172573.inp" -scrdir="/scratch/"
 Default CPUs for threads: 0-35
 Default is to use a total of  36 processors:
                               36 via shared-memory
                                1 via Linda
 Entering Link 1 = /gpfs/fs1/soft/bebop/software/custom-built/gaussian/16-c.02/g16/l1.exe PID=   2172574.
  
 Copyright (c) 1988-2019, Gaussian, Inc.  All Rights Reserved.
  
 This is part of the Gaussian(R) 16 program.  It is based on
 the Gaussian(R) 09 system (copyright 2009, Gaussian, Inc.),
 the Gaussian(R) 03 system (copyright 2003, Gaussian, Inc.),
 the Gaussian(R) 98 system (copyright 1998, Gaussian, Inc.),
 the Gaussian(R) 94 system (copyright 1995, Gaussian, Inc.),
 the Gaussian 92(TM) system (copyright 1992, Gaussian, Inc.),
 the Gaussian 90(TM) system (copyright 1990, Gaussian, Inc.),
 the Gaussian 88(TM) system (copyright 1988, Gaussian, Inc.),
 the Gaussian 86(TM) system (copyright 1986, Carnegie Mellon
 University), and the Gaussian 82(TM) system (copyright 1983,
 Carnegie Mellon University). Gaussian is a federally registered
 trademark of Gaussian, Inc.
  
 This software contains proprietary and confidential information,
 including trade secrets, belonging to Gaussian, Inc.
  
 This software is provided under written license and may be
 used, copied, transmitted, or stored only in accord with that
 written license.
  
 The following legend is applicable only to US Government
 contracts under FAR:
  
                    RESTRICTED RIGHTS LEGEND
  
 Use, reproduction and disclosure by the US Government is
 subject to restrictions as set forth in subparagraphs (a)
 and (c) of the Commercial Computer Software - Restricted
 Rights clause in FAR 52.227-19.
  
 Gaussian, Inc.
 340 Quinnipiac St., Bldg. 40, Wallingford CT 06492
  
  
 ---------------------------------------------------------------
 Warning -- This program may not be used in any manner that
 competes with the business of Gaussian, Inc. or will provide
 assistance to any competitor of Gaussian, Inc.  The licensee
 of this program is prohibited from giving any competitor of
 Gaussian, Inc. access to this program.  By using this program,
 the user acknowledges that Gaussian, Inc. is engaged in the
 business of creating and licensing software in the field of
 computational chemistry and represents and warrants to the
 licensee that it is not a competitor of Gaussian, Inc. and that
 it will not use this program in any manner prohibited above.
 ---------------------------------------------------------------
  

 Cite this work as:
 Gaussian 16, Revision C.01,
 M. J. Frisch, G. W. Trucks, H. B. Schlegel, G. E. Scuseria, 
 M. A. Robb, J. R. Cheeseman, G. Scalmani, V. Barone, 
 G. A. Petersson, H. Nakatsuji, X. Li, M. Caricato, A. V. Marenich, 
 J. Bloino, B. G. Janesko, R. Gomperts, B. Mennucci, H. P. Hratchian, 
 J. V. Ortiz, A. F. Izmaylov, J. L. Sonnenberg, D. Williams-Young, 
 F. Ding, F. Lipparini, F. Egidi, J. Goings, B. Peng, A. Petrone, 
 T. Henderson, D. Ranasinghe, V. G. Zakrzewski, J. Gao, N. Rega, 
 G. Zheng, W. Liang, M. Hada, M. Ehara, K. Toyota, R. Fukuda, 
 J. Hasegawa, M. Ishida, T. Nakajima, Y. Honda, O. Kitao, H. Nakai, 
 T. Vreven, K. Throssell, J. A. Montgomery, Jr., J. E. Peralta, 
 F. Ogliaro, M. J. Bearpark, J. J. Heyd, E. N. Brothers, K. N. Kudin, 
 V. N. Staroverov, T. A. Keith, R. Kobayashi, J. Normand, 
 K. Raghavachari, A. P. Rendell, J. C. Burant, S. S. Iyengar, 
 J. Tomasi, M. Cossi, J. M. Millam, M. Klene, C. Adamo, R. Cammi, 
 J. W. Ochterski, R. L. Martin, K. Morokuma, O. Farkas, 
 J. B. Foresman, and D. J. Fox, Gaussian, Inc., Wallingford CT, 2019.
 
 ******************************************
 Gaussian 16:  ES64L-G16RevC.01  3-Jul-2019
                20-May-2025 
 ******************************************
 %mem=28GB
 %NProcShared=6
 Will use up to    6 processors via shared memory.
 -------------------------------------------------------
 #P wb97xd/def2svp # SCF=(xqc) # POpt=() # int=ultrafine
 -------------------------------------------------------
 1/10=7,26=4,38=1/1,3;
 2/12=2,17=6,18=5,29=3,40=1/2;
 3/5=43,7=101,11=2,25=1,30=1,71=1,74=-58,75=-5/1,2,3;
 4//1;
 5/5=2,8=3,13=1,38=5/2,8;
 6/7=2,8=2,9=2,10=2,28=1/1;
 7/29=1/1,2,3,16;
 1/10=7,26=4/3(2);
 2/29=3/2;
 99//99;
 2/29=3/2;
 3/5=43,7=101,11=2,25=1,30=1,71=1,74=-58,75=-5/1,2,3;
 4/5=5,16=3,69=1/1;
 5/5=2,8=3,13=1,38=5/2,8;
 7//1,2,3,16;
 1/26=4/3(-5);
 2/29=3/2;
 6/7=2,8=2,9=2,10=2,19=2,28=1/1;
 99/9=1/99;
 Leave Link    1 at Tue May 20 11:58:48 2025, MaxMem=  3758096384 cpu:               0.2 elap:               0.0
 (Enter /gpfs/fs1/soft/bebop/software/custom-built/gaussian/16-c.02/g16/l101.exe)
 --------
 comment:
 --------
 Symbolic Z-matrix:
 Charge =  0 Multiplicity = 2
 C
 C                    1    R1
 H                    1    R2       2    A2
 C                    2    R3       1    A3       3    D3       0
 H                    2    R4       1    A4       4    D4       0
 C                    4    R5       2    A5       1    D5       0
 H                    4    R6       2    A6       6    D6       0
 H                    6    R7       4    A7       2    D7       0
 H                    6    R8       4    A8       8    D8       0
 C                    6    R9       4    A9       8    D9       0
 H                    10   R10      6    A10      4    D10      0
 O                    10   R11      6    A11      11   D11      0
 O                    12   R12      10   A12      1    D12      0
 H                    13   R13      12   A13      10   D13      0
       Variables:
  R1                    1.4351                   
  R2                    1.0935                   
  R3                    1.3854                   
  R4                    1.0902                   
  R5                    1.4035                   
  R6                    1.0951                   
  R7                    1.0883                   
  R8                    1.0951                   
  R10                   1.097                    
  R11                   1.3724                   
  R12                   1.4327                   
  R13                   0.967                    
  A2                  123.406                    
  A3                  110.5835                   
  A4                  125.0294                   
  A5                  119.0314                   
  A6                  121.3319                   
  A7                  123.5437                   
  A8                  118.2276                   
  A9                   89.3718                   
  A10                 126.103                    
  A11                  75.0796                   
  A12                 106.0492                   
  A13                  99.6413                   
  D3                  224.9303                   
  D4                  177.3572                   
  D5                    7.8391                   
  D6                  183.4275                   
  D7                   38.4441                   
  D8                  156.6256                   
  D9                  298.0228                   
  D10                 158.3015                   
  D11                 104.4849                   
  D12                 128.1047                   
  D13                 135.7334                   
       Constants:
  R9                    2.22                     
 
 ITRead=  0  0  0  0  0  0  0  0  0  0  0  0  0  0
 MicOpt= -1 -1 -1 -1 -1 -1 -1 -1 -1 -1 -1 -1 -1 -1
 NAtoms=     14 NQM=       14 NQMF=       0 NMMI=      0 NMMIF=      0
                NMic=       0 NMicF=      0.
                    Isotopes and Nuclear Properties:
 (Nuclear quadrupole moments (NQMom) in fm**2, nuclear magnetic moments (NMagM)
  in nuclear magnetons)

  Atom         1           2           3           4           5           6           7           8           9          10
 IAtWgt=          12          12           1          12           1          12           1           1           1          12
 AtmWgt=  12.0000000  12.0000000   1.0078250  12.0000000   1.0078250  12.0000000   1.0078250   1.0078250   1.0078250  12.0000000
 NucSpn=           0           0           1           0           1           0           1           1           1           0
 AtZEff=  -0.0000000  -0.0000000  -0.0000000  -0.0000000  -0.0000000  -0.0000000  -0.0000000  -0.0000000  -0.0000000  -0.0000000
 NQMom=    0.0000000   0.0000000   0.0000000   0.0000000   0.0000000   0.0000000   0.0000000   0.0000000   0.0000000   0.0000000
 NMagM=    0.0000000   0.0000000   2.7928460   0.0000000   2.7928460   0.0000000   2.7928460   2.7928460   2.7928460   0.0000000
 AtZNuc=   6.0000000   6.0000000   1.0000000   6.0000000   1.0000000   6.0000000   1.0000000   1.0000000   1.0000000   6.0000000

  Atom        11          12          13          14
 IAtWgt=           1          16          16           1
 AtmWgt=   1.0078250  15.9949146  15.9949146   1.0078250
 NucSpn=           1           0           0           1
 AtZEff=  -0.0000000  -0.0000000  -0.0000000  -0.0000000
 NQMom=    0.0000000   0.0000000   0.0000000   0.0000000
 NMagM=    2.7928460   0.0000000   0.0000000   2.7928460
 AtZNuc=   1.0000000   8.0000000   8.0000000   1.0000000
 Leave Link  101 at Tue May 20 11:58:48 2025, MaxMem=  3758096384 cpu:               0.6 elap:               0.1
 (Enter /gpfs/fs1/soft/bebop/software/custom-built/gaussian/16-c.02/g16/l103.exe)

 GradGradGradGradGradGradGradGradGradGradGradGradGradGradGradGradGradGrad
 Berny optimization.
 Initialization pass.
                       ----------------------------
                       !    Initial Parameters    !
                       ! (Angstroms and Degrees)  !
 ----------------------                            ----------------------
 !      Name          Value   Derivative information (Atomic Units)     !
 ------------------------------------------------------------------------
 !       R1          1.4351   estimate D2E/DX2                          !
 !       R2          1.0935   estimate D2E/DX2                          !
 !       R3          1.3854   estimate D2E/DX2                          !
 !       R4          1.0902   estimate D2E/DX2                          !
 !       R5          1.4035   estimate D2E/DX2                          !
 !       R6          1.0951   estimate D2E/DX2                          !
 !       R7          1.0883   estimate D2E/DX2                          !
 !       R8          1.0951   estimate D2E/DX2                          !
 !       R10         1.097    estimate D2E/DX2                          !
 !       R11         1.3724   estimate D2E/DX2                          !
 !       R12         1.4327   estimate D2E/DX2                          !
 !       R13         0.967    estimate D2E/DX2                          !
 !       A2        123.406    estimate D2E/DX2                          !
 !       A3        110.5835   estimate D2E/DX2                          !
 !       A4        125.0294   estimate D2E/DX2                          !
 !       A5        119.0314   estimate D2E/DX2                          !
 !       A6        121.3319   estimate D2E/DX2                          !
 !       A7        123.5437   estimate D2E/DX2                          !
 !       A8        118.2276   estimate D2E/DX2                          !
 !       A9         89.3718   estimate D2E/DX2                          !
 !       A10       126.103    estimate D2E/DX2                          !
 !       A11        75.0796   estimate D2E/DX2                          !
 !       A12       106.0492   estimate D2E/DX2                          !
 !       A13        99.6413   estimate D2E/DX2                          !
 !       D3        224.9303   estimate D2E/DX2                          !
 !       D4        177.3572   estimate D2E/DX2                          !
 !       D5          7.8391   estimate D2E/DX2                          !
 !       D6        183.4275   estimate D2E/DX2                          !
 !       D7         38.4441   estimate D2E/DX2                          !
 !       D8        156.6256   estimate D2E/DX2                          !
 !       D9        298.0228   estimate D2E/DX2                          !
 !       D10       158.3015   estimate D2E/DX2                          !
 !       D11       104.4849   estimate D2E/DX2                          !
 !       D12       128.1047   estimate D2E/DX2                          !
 !       D13       135.7334   estimate D2E/DX2                          !
 !       R9          2.22     Frozen                                    !
 ------------------------------------------------------------------------
 Trust Radius=3.00D-01 FncErr=1.00D-07 GrdErr=1.00D-06 EigMax=2.50D+02 EigMin=1.00D-04
 Number of steps in this run=     46 maximum allowed number of steps=    100.
 GradGradGradGradGradGradGradGradGradGradGradGradGradGradGradGradGradGrad

 Leave Link  103 at Tue May 20 11:58:48 2025, MaxMem=  3758096384 cpu:               0.1 elap:               0.0
 (Enter /gpfs/fs1/soft/bebop/software/custom-built/gaussian/16-c.02/g16/l202.exe)
 ---------------------------------------------------------------------------------------------------
                            Z-MATRIX (ANGSTROMS AND DEGREES)
   CD    Cent   Atom    N1       Length/X        N2       Alpha/Y        N3        Beta/Z          J
 ---------------------------------------------------------------------------------------------------
      1      1  C 
      2      2  C        1   1.435100(     1)
      3      3  H        1   1.093500(     2)      2  123.406(    14)
      4      4  C        2   1.385400(     3)      1  110.584(    15)      3  224.930(    26)      0
      5      5  H        2   1.090200(     4)      1  125.029(    16)      4  177.357(    27)      0
      6      6  C        4   1.403500(     5)      2  119.031(    17)      1    7.839(    28)      0
      7      7  H        4   1.095100(     6)      2  121.332(    18)      6  183.428(    29)      0
      8      8  H        6   1.088300(     7)      4  123.544(    19)      2   38.444(    30)      0
      9      9  H        6   1.095100(     8)      4  118.228(    20)      8  156.626(    31)      0
     10     10  C        6   2.220000(     9)      4   89.372(    21)      8  298.023(    32)      0
     11     11  H       10   1.097000(    10)      6  126.103(    22)      4  158.302(    33)      0
     12     12  O       10   1.372400(    11)      6   75.080(    23)     11  104.485(    34)      0
     13     13  O       12   1.432700(    12)     10  106.049(    24)      1  128.105(    35)      0
     14     14  H       13   0.967000(    13)     12   99.641(    25)     10  135.733(    36)      0
 ---------------------------------------------------------------------------------------------------
                         Z-Matrix orientation:                         
 ---------------------------------------------------------------------
 Center     Atomic      Atomic             Coordinates (Angstroms)
 Number     Number       Type             X           Y           Z
 ---------------------------------------------------------------------
      1          6           0        0.000000    0.000000    0.000000
      2          6           0        0.000000    0.000000    1.435100
      3          1           0        0.912843    0.000000   -0.602046
      4          6           0       -0.918202   -0.915971    1.922168
      5          1           0        0.660413    0.600667    2.060871
      6          6           0       -1.553996   -1.786635    1.023545
      7          1           0       -1.196348   -0.935302    2.981179
      8          1           0       -1.052810   -2.243537    0.172400
      9          1           0       -2.444636   -2.324227    1.365597
     10          6           0       -1.162173   -0.341683   -0.615658
     11          1           0       -1.132894   -0.572640   -1.687670
     12          8           0       -2.450636   -0.085021   -0.218833
     13          8           0       -3.098102    0.521713   -1.343685
     14          1           0       -3.935921    0.039114   -1.328020
 ---------------------------------------------------------------------
                    Distance matrix (angstroms):
                    1          2          3          4          5
     1  C    0.000000
     2  C    1.435100   0.000000
     3  H    1.093500   2.232319   0.000000
     4  C    2.318799   1.385400   3.250136   0.000000
     5  H    2.245916   1.090200   2.741469   2.193503   0.000000
     6  C    2.579654   2.403403   3.452522   1.403500   3.417435
     7  H    3.345664   2.167118   4.261805   1.095100   2.579482
     8  H    2.484268   2.781417   3.081723   2.200509   3.819811
     9  H    3.639111   3.373886   4.532805   2.150106   4.322007
    10  C    1.358834   2.381807   2.103004   2.613406   3.372485
    11  H    2.111776   3.370914   2.385694   3.632479   4.317889
    12  O    2.461856   2.957759   3.386307   2.760927   3.917378
    13  O    3.417003   4.194290   4.112164   4.181470   5.071851
    14  H    4.154112   4.809141   4.902967   4.536798   5.738137
                    6          7          8          9         10
     6  C    0.000000
     7  H    2.164489   0.000000
     8  H    1.088300   3.101826   0.000000
     9  H    1.095100   2.469300   1.835051   0.000000
    10  C    2.220000   3.645654   2.061564   3.082298   0.000000
    11  H    3.000300   4.683344   2.501634   3.756483   1.097000
    12  O    2.289751   3.540664   2.601187   2.743082   1.372400
    13  O    3.649179   4.944089   3.758768   3.983290   2.241271
    14  H    3.812714   5.198456   3.971661   3.881351   2.888969
                   11         12         13         14
    11  H    0.000000
    12  O    2.032658   0.000000
    13  O    2.275517   1.432700   0.000000
    14  H    2.891463   1.857896   0.967000   0.000000
 Stoichiometry    C5H7O2(2)
 Framework group  C1[X(C5H7O2)]
 Deg. of freedom    36
 Full point group                 C1      NOp   1
 Largest Abelian subgroup         C1      NOp   1
 Largest concise Abelian subgroup C1      NOp   1
                         Standard orientation:                         
 ---------------------------------------------------------------------
 Center     Atomic      Atomic             Coordinates (Angstroms)
 Number     Number       Type             X           Y           Z
 ---------------------------------------------------------------------
      1          6           0        0.658281   -1.291665    0.272237
      2          6           0        1.681494   -0.661992   -0.512657
      3          1           0        0.830700   -2.181552    0.883887
      4          6           0        1.642643    0.713338   -0.350514
      5          1           0        2.419289   -1.189133   -1.117897
      6          6           0        0.791111    1.260766    0.621613
      7          1           0        2.219001    1.379890   -1.000717
      8          1           0        0.623875    0.809242    1.597602
      9          1           0        0.576532    2.333720    0.577240
     10          6           0       -0.464966   -0.566625    0.515262
     11          1           0       -1.154763   -0.922862    1.290300
     12          8           0       -1.092672    0.341563   -0.300006
     13          8           0       -2.466555   -0.060703   -0.357079
     14          1           0       -2.892183    0.800884   -0.249384
 ---------------------------------------------------------------------
 Rotational constants (GHZ):           5.2405823           2.0670403           1.7301130
 Leave Link  202 at Tue May 20 11:58:48 2025, MaxMem=  3758096384 cpu:               0.1 elap:               0.0
 (Enter /gpfs/fs1/soft/bebop/software/custom-built/gaussian/16-c.02/g16/l301.exe)
 Standard basis: def2SVP (5D, 7F)
 Ernie: Thresh=  0.10000D-02 Tol=  0.10000D-05 Strict=F.
 There are   140 symmetry adapted cartesian basis functions of A   symmetry.
 There are   133 symmetry adapted basis functions of A   symmetry.
   133 basis functions,   224 primitive gaussians,   140 cartesian basis functions
    27 alpha electrons       26 beta electrons
       nuclear repulsion energy       296.6289403328 Hartrees.
 IExCor= 4639 DFT=T Ex+Corr=wB97XD ExCW=0 ScaHFX=  1.000000
 ScaDFX=  1.000000  1.000000  1.000000  1.000000 ScalE2=  1.000000  1.000000
 IRadAn=      5 IRanWt=     -1 IRanGd=            0 ICorTp=0 IEmpDi=121
 HFx  wShort=  0.000000 wLong=  0.200000 cFull=  0.222036 cShort=  0.000000 cLong=  0.777964
 DFx  wShort=  0.000000 wLong=  0.200000 cFull=  0.000000 cShort=  0.000000 cLong=  1.000000
 NAtoms=   14 NActive=   14 NUniq=   14 SFac= 1.00D+00 NAtFMM=   60 NAOKFM=F Big=F
 Integral buffers will be    131072 words long.
 Raffenetti 2 integral format.
 Two-electron integral symmetry is turned on.
 R6Disp:  Grimme-D2 Dispersion energy=       -0.0057744094 Hartrees.
 Nuclear repulsion after empirical dispersion term =      296.6231659234 Hartrees.
 Leave Link  301 at Tue May 20 11:58:48 2025, MaxMem=  3758096384 cpu:               0.3 elap:               0.1
 (Enter /gpfs/fs1/soft/bebop/software/custom-built/gaussian/16-c.02/g16/l302.exe)
 NPDir=0 NMtPBC=     1 NCelOv=     1 NCel=       1 NClECP=     1 NCelD=      1
         NCelK=      1 NCelE2=     1 NClLst=     1 CellRange=     0.0.
 One-electron integrals computed using PRISM.
 One-electron integral symmetry used in STVInt
   1 Symmetry operations used in ECPInt.
 ECPInt:  NShTT=    2016 NPrTT=    7252 LenC2=    2009 LenP2D=    5974.
 LDataN:  DoStor=T MaxTD1= 4 Len=   56
 NBasis=   133 RedAO= T EigKep=  1.06D-03  NBF=   133
 NBsUse=   133 1.00D-06 EigRej= -1.00D+00 NBFU=   133
 Precomputing XC quadrature grid using
 IXCGrd= 4 IRadAn=           5 IRanWt=          -1 IRanGd=           0 AccXCQ= 0.00D+00.
 Generated NRdTot=       0 NPtTot=           0 NUsed=           0 NTot=          32
 NSgBfM=   140   140   140   140   140 MxSgAt=    14 MxSgA2=    14.
 Leave Link  302 at Tue May 20 11:58:48 2025, MaxMem=  3758096384 cpu:               0.8 elap:               0.2
 (Enter /gpfs/fs1/soft/bebop/software/custom-built/gaussian/16-c.02/g16/l303.exe)
 DipDrv:  MaxL=1.
 Leave Link  303 at Tue May 20 11:58:48 2025, MaxMem=  3758096384 cpu:               0.1 elap:               0.0
 (Enter /gpfs/fs1/soft/bebop/software/custom-built/gaussian/16-c.02/g16/l401.exe)
 ExpMin= 1.22D-01 ExpMax= 2.27D+03 ExpMxC= 3.41D+02 IAcc=3 IRadAn=         5 AccDes= 0.00D+00
 Harris functional with IExCor= 4639 and IRadAn=       5 diagonalized for initial guess.
 HarFok:  IExCor= 4639 AccDes= 0.00D+00 IRadAn=         5 IDoV= 1 UseB2=F ITyADJ=14
 ICtDFT=  3500011 ScaDFX=  1.000000  1.000000  1.000000  1.000000
 FoFCou: FMM=F IPFlag=           0 FMFlag=      100000 FMFlg1=           0
         NFxFlg=           0 DoJE=T BraDBF=F KetDBF=T FulRan=T
         wScrn=  0.000000 ICntrl=       500 IOpCl=  0 I1Cent=   200000004 NGrid=           0
         NMat0=    1 NMatS0=      1 NMatT0=    0 NMatD0=    1 NMtDS0=    0 NMtDT0=    0
 Petite list used in FoFCou.
 Harris En= -330.312546320374    
 JPrj=0 DoOrth=F DoCkMO=F.
 Initial guess <Sx>= 0.0000 <Sy>= 0.0000 <Sz>= 0.5000 <S**2>= 0.7500 S= 0.5000
 Leave Link  401 at Tue May 20 11:58:49 2025, MaxMem=  3758096384 cpu:               2.4 elap:               0.4
 (Enter /gpfs/fs1/soft/bebop/software/custom-built/gaussian/16-c.02/g16/l502.exe)
 Keep R1 and R2 ints in memory in canonical form, NReq=165843629.
 FoFCou: FMM=F IPFlag=           0 FMFlag=           0 FMFlg1=           0
         NFxFlg=           0 DoJE=F BraDBF=F KetDBF=F FulRan=T
         wScrn=  0.000000 ICntrl=       600 IOpCl=  0 I1Cent=           0 NGrid=           0
         NMat0=    1 NMatS0=   8911 NMatT0=    0 NMatD0=    1 NMtDS0=    0 NMtDT0=    0
 Symmetry not used in FoFCou.
 Two-electron integral symmetry not used.
 UHF open shell SCF:
 Using DIIS extrapolation, IDIIS=  1040.
 NGot=  3758096384 LenX=  3599224750 LenY=  3599204709
 Requested convergence on RMS density matrix=1.00D-08 within  32 cycles.
 Requested convergence on MAX density matrix=1.00D-06.
 Requested convergence on             energy=1.00D-06.
 No special actions if energy rises.
 Integral accuracy reduced to 1.0D-05 until final iterations.

 Cycle   1  Pass 0  IDiag  1:
 E= -344.366711559364    
 DIIS: error= 2.59D-02 at cycle   1 NSaved=   1.
 NSaved= 1 IEnMin= 1 EnMin= -344.366711559364     IErMin= 1 ErrMin= 2.59D-02
 ErrMax= 2.59D-02  0.00D+00 EMaxC= 1.00D-01 BMatC= 1.23D+00 BMatP= 1.23D+00
 IDIUse=3 WtCom= 7.41D-01 WtEn= 2.59D-01
 Coeff-Com:  0.100D+01
 Coeff-En:   0.100D+01
 Coeff:      0.100D+01
 Gap=     0.191 Goal=   None    Shift=    0.000
 Gap=     0.519 Goal=   None    Shift=    0.000
 GapD=    0.191 DampG=1.000 DampE=0.500 DampFc=0.5000 IDamp=-1.
 Damping current iteration by 5.00D-01
 RMSDP=7.59D-03 MaxDP=1.97D-01              OVMax= 3.22D-01

 Cycle   2  Pass 0  IDiag  1:
 E= -344.441090657197     Delta-E=       -0.074379097833 Rises=F Damp=T
 DIIS: error= 1.33D-02 at cycle   2 NSaved=   2.
 NSaved= 2 IEnMin= 2 EnMin= -344.441090657197     IErMin= 2 ErrMin= 1.33D-02
 ErrMax= 1.33D-02  0.00D+00 EMaxC= 1.00D-01 BMatC= 1.42D-01 BMatP= 1.23D+00
 IDIUse=3 WtCom= 8.67D-01 WtEn= 1.33D-01
 Coeff-Com:  0.273D-01 0.973D+00
 Coeff-En:   0.197D+00 0.803D+00
 Coeff:      0.498D-01 0.950D+00
 Gap=     0.295 Goal=   None    Shift=    0.000
 Gap=     0.485 Goal=   None    Shift=    0.000
 RMSDP=2.11D-03 MaxDP=4.10D-02 DE=-7.44D-02 OVMax= 2.56D-01

 Cycle   3  Pass 0  IDiag  1:
 E= -344.561737170891     Delta-E=       -0.120646513694 Rises=F Damp=F
 DIIS: error= 3.83D-03 at cycle   3 NSaved=   3.
 NSaved= 3 IEnMin= 3 EnMin= -344.561737170891     IErMin= 3 ErrMin= 3.83D-03
 ErrMax= 3.83D-03  0.00D+00 EMaxC= 1.00D-01 BMatC= 2.08D-02 BMatP= 1.42D-01
 IDIUse=3 WtCom= 9.62D-01 WtEn= 3.83D-02
 Coeff-Com: -0.999D-01 0.206D+00 0.894D+00
 Coeff-En:   0.000D+00 0.000D+00 0.100D+01
 Coeff:     -0.961D-01 0.198D+00 0.898D+00
 Gap=     0.261 Goal=   None    Shift=    0.000
 Gap=     0.320 Goal=   None    Shift=    0.000
 RMSDP=7.81D-04 MaxDP=1.59D-02 DE=-1.21D-01 OVMax= 4.86D-02

 Cycle   4  Pass 0  IDiag  1:
 E= -344.567890156506     Delta-E=       -0.006152985614 Rises=F Damp=F
 DIIS: error= 1.62D-03 at cycle   4 NSaved=   4.
 NSaved= 4 IEnMin= 4 EnMin= -344.567890156506     IErMin= 4 ErrMin= 1.62D-03
 ErrMax= 1.62D-03  0.00D+00 EMaxC= 1.00D-01 BMatC= 4.13D-03 BMatP= 2.08D-02
 IDIUse=3 WtCom= 9.84D-01 WtEn= 1.62D-02
 Coeff-Com: -0.499D-01 0.800D-01 0.473D+00 0.497D+00
 Coeff-En:   0.000D+00 0.000D+00 0.000D+00 0.100D+01
 Coeff:     -0.491D-01 0.787D-01 0.465D+00 0.505D+00
 Gap=     0.265 Goal=   None    Shift=    0.000
 Gap=     0.322 Goal=   None    Shift=    0.000
 RMSDP=2.61D-04 MaxDP=5.45D-03 DE=-6.15D-03 OVMax= 1.10D-02

 Cycle   5  Pass 0  IDiag  1:
 E= -344.569096547276     Delta-E=       -0.001206390770 Rises=F Damp=F
 DIIS: error= 8.65D-04 at cycle   5 NSaved=   5.
 NSaved= 5 IEnMin= 5 EnMin= -344.569096547276     IErMin= 5 ErrMin= 8.65D-04
 ErrMax= 8.65D-04  0.00D+00 EMaxC= 1.00D-01 BMatC= 4.49D-04 BMatP= 4.13D-03
 IDIUse=3 WtCom= 9.91D-01 WtEn= 8.65D-03
 Coeff-Com:  0.188D-01-0.448D-01-0.173D+00 0.335D-01 0.117D+01
 Coeff-En:   0.000D+00 0.000D+00 0.000D+00 0.000D+00 0.100D+01
 Coeff:      0.187D-01-0.444D-01-0.171D+00 0.332D-01 0.116D+01
 Gap=     0.271 Goal=   None    Shift=    0.000
 Gap=     0.326 Goal=   None    Shift=    0.000
 RMSDP=3.36D-04 MaxDP=6.95D-03 DE=-1.21D-03 OVMax= 2.39D-02

 Cycle   6  Pass 0  IDiag  1:
 E= -344.569806784307     Delta-E=       -0.000710237031 Rises=F Damp=F
 DIIS: error= 4.81D-04 at cycle   6 NSaved=   6.
 NSaved= 6 IEnMin= 6 EnMin= -344.569806784307     IErMin= 6 ErrMin= 4.81D-04
 ErrMax= 4.81D-04  0.00D+00 EMaxC= 1.00D-01 BMatC= 1.33D-04 BMatP= 4.49D-04
 IDIUse=3 WtCom= 9.95D-01 WtEn= 4.81D-03
 Coeff-Com:  0.160D-01-0.285D-01-0.132D+00-0.124D+00 0.227D+00 0.104D+01
 Coeff-En:   0.000D+00 0.000D+00 0.000D+00 0.000D+00 0.000D+00 0.100D+01
 Coeff:      0.160D-01-0.283D-01-0.131D+00-0.123D+00 0.226D+00 0.104D+01
 Gap=     0.273 Goal=   None    Shift=    0.000
 Gap=     0.328 Goal=   None    Shift=    0.000
 RMSDP=1.99D-04 MaxDP=3.51D-03 DE=-7.10D-04 OVMax= 1.37D-02

 Cycle   7  Pass 0  IDiag  1:
 E= -344.570007980010     Delta-E=       -0.000201195704 Rises=F Damp=F
 DIIS: error= 2.72D-04 at cycle   7 NSaved=   7.
 NSaved= 7 IEnMin= 7 EnMin= -344.570007980010     IErMin= 7 ErrMin= 2.72D-04
 ErrMax= 2.72D-04  0.00D+00 EMaxC= 1.00D-01 BMatC= 4.92D-05 BMatP= 1.33D-04
 IDIUse=3 WtCom= 9.97D-01 WtEn= 2.72D-03
 Coeff-Com: -0.394D-04 0.264D-02 0.111D-01-0.385D-01-0.199D+00 0.388D+00
 Coeff-Com:  0.836D+00
 Coeff-En:   0.000D+00 0.000D+00 0.000D+00 0.000D+00 0.000D+00 0.000D+00
 Coeff-En:   0.100D+01
 Coeff:     -0.393D-04 0.263D-02 0.111D-01-0.384D-01-0.199D+00 0.387D+00
 Coeff:      0.837D+00
 Gap=     0.273 Goal=   None    Shift=    0.000
 Gap=     0.328 Goal=   None    Shift=    0.000
 RMSDP=8.23D-05 MaxDP=1.57D-03 DE=-2.01D-04 OVMax= 6.10D-03

 Cycle   8  Pass 0  IDiag  1:
 E= -344.570059422077     Delta-E=       -0.000051442066 Rises=F Damp=F
 DIIS: error= 1.38D-04 at cycle   8 NSaved=   8.
 NSaved= 8 IEnMin= 8 EnMin= -344.570059422077     IErMin= 8 ErrMin= 1.38D-04
 ErrMax= 1.38D-04  0.00D+00 EMaxC= 1.00D-01 BMatC= 1.33D-05 BMatP= 4.92D-05
 IDIUse=3 WtCom= 9.99D-01 WtEn= 1.38D-03
 Coeff-Com: -0.661D-02 0.125D-01 0.549D-01 0.339D-01-0.153D+00-0.269D+00
 Coeff-Com:  0.203D+00 0.113D+01
 Coeff-En:   0.000D+00 0.000D+00 0.000D+00 0.000D+00 0.000D+00 0.000D+00
 Coeff-En:   0.000D+00 0.100D+01
 Coeff:     -0.660D-02 0.125D-01 0.548D-01 0.338D-01-0.153D+00-0.269D+00
 Coeff:      0.202D+00 0.113D+01
 Gap=     0.274 Goal=   None    Shift=    0.000
 Gap=     0.328 Goal=   None    Shift=    0.000
 RMSDP=7.57D-05 MaxDP=1.36D-03 DE=-5.14D-05 OVMax= 5.46D-03

 Cycle   9  Pass 0  IDiag  1:
 E= -344.570087288283     Delta-E=       -0.000027866206 Rises=F Damp=F
 DIIS: error= 7.35D-05 at cycle   9 NSaved=   9.
 NSaved= 9 IEnMin= 9 EnMin= -344.570087288283     IErMin= 9 ErrMin= 7.35D-05
 ErrMax= 7.35D-05  0.00D+00 EMaxC= 1.00D-01 BMatC= 4.13D-06 BMatP= 1.33D-05
 IDIUse=1 WtCom= 1.00D+00 WtEn= 0.00D+00
 Coeff-Com: -0.148D-02 0.260D-02 0.597D-02 0.687D-02 0.556D-02-0.123D+00
 Coeff-Com: -0.119D+00 0.236D+00 0.987D+00
 Coeff:     -0.148D-02 0.260D-02 0.597D-02 0.687D-02 0.556D-02-0.123D+00
 Coeff:     -0.119D+00 0.236D+00 0.987D+00
 Gap=     0.274 Goal=   None    Shift=    0.000
 Gap=     0.329 Goal=   None    Shift=    0.000
 RMSDP=3.75D-05 MaxDP=6.33D-04 DE=-2.79D-05 OVMax= 2.97D-03

 Failed to achieve initial convergence to 1.0D-08 in 10 cycles.
 Switch to full accuracy anyway.
 Cycle  10  Pass 1  IDiag  1:
 E= -344.570091745661     Delta-E=       -0.000004457378 Rises=F Damp=F
 DIIS: error= 5.62D-05 at cycle   1 NSaved=   1.
 NSaved= 1 IEnMin= 1 EnMin= -344.570091745661     IErMin= 1 ErrMin= 5.62D-05
 ErrMax= 5.62D-05  0.00D+00 EMaxC= 1.00D-01 BMatC= 2.32D-06 BMatP= 2.32D-06
 IDIUse=1 WtCom= 1.00D+00 WtEn= 0.00D+00
 Coeff-Com:  0.100D+01
 Coeff:      0.100D+01
 Gap=     0.274 Goal=   None    Shift=    0.000
 Gap=     0.329 Goal=   None    Shift=    0.000
 RMSDP=3.75D-05 MaxDP=6.33D-04 DE=-4.46D-06 OVMax= 1.29D-03

 Cycle  11  Pass 1  IDiag  1:
 E= -344.570094901556     Delta-E=       -0.000003155895 Rises=F Damp=F
 DIIS: error= 5.00D-05 at cycle   2 NSaved=   2.
 NSaved= 2 IEnMin= 2 EnMin= -344.570094901556     IErMin= 2 ErrMin= 5.00D-05
 ErrMax= 5.00D-05  0.00D+00 EMaxC= 1.00D-01 BMatC= 1.20D-06 BMatP= 2.32D-06
 IDIUse=1 WtCom= 1.00D+00 WtEn= 0.00D+00
 Coeff-Com:  0.108D+00 0.892D+00
 Coeff:      0.108D+00 0.892D+00
 Gap=     0.274 Goal=   None    Shift=    0.000
 Gap=     0.329 Goal=   None    Shift=    0.000
 RMSDP=1.23D-05 MaxDP=2.20D-04 DE=-3.16D-06 OVMax= 1.02D-03

 Cycle  12  Pass 1  IDiag  1:
 E= -344.570096728042     Delta-E=       -0.000001826486 Rises=F Damp=F
 DIIS: error= 3.89D-05 at cycle   3 NSaved=   3.
 NSaved= 3 IEnMin= 3 EnMin= -344.570096728042     IErMin= 3 ErrMin= 3.89D-05
 ErrMax= 3.89D-05  0.00D+00 EMaxC= 1.00D-01 BMatC= 8.40D-07 BMatP= 1.20D-06
 IDIUse=1 WtCom= 1.00D+00 WtEn= 0.00D+00
 Coeff-Com: -0.474D+00 0.292D+00 0.118D+01
 Coeff:     -0.474D+00 0.292D+00 0.118D+01
 Gap=     0.274 Goal=   None    Shift=    0.000
 Gap=     0.329 Goal=   None    Shift=    0.000
 RMSDP=1.94D-05 MaxDP=4.13D-04 DE=-1.83D-06 OVMax= 1.65D-03

 Cycle  13  Pass 1  IDiag  1:
 E= -344.570099038801     Delta-E=       -0.000002310759 Rises=F Damp=F
 DIIS: error= 2.91D-05 at cycle   4 NSaved=   4.
 NSaved= 4 IEnMin= 4 EnMin= -344.570099038801     IErMin= 4 ErrMin= 2.91D-05
 ErrMax= 2.91D-05  0.00D+00 EMaxC= 1.00D-01 BMatC= 4.02D-07 BMatP= 8.40D-07
 IDIUse=1 WtCom= 1.00D+00 WtEn= 0.00D+00
 Coeff-Com: -0.156D+00-0.529D+00 0.183D+00 0.150D+01
 Coeff:     -0.156D+00-0.529D+00 0.183D+00 0.150D+01
 Gap=     0.274 Goal=   None    Shift=    0.000
 Gap=     0.329 Goal=   None    Shift=    0.000
 RMSDP=2.43D-05 MaxDP=4.82D-04 DE=-2.31D-06 OVMax= 2.14D-03

 Cycle  14  Pass 1  IDiag  1:
 E= -344.570100800504     Delta-E=       -0.000001761703 Rises=F Damp=F
 DIIS: error= 1.43D-05 at cycle   5 NSaved=   5.
 NSaved= 5 IEnMin= 5 EnMin= -344.570100800504     IErMin= 5 ErrMin= 1.43D-05
 ErrMax= 1.43D-05  0.00D+00 EMaxC= 1.00D-01 BMatC= 1.66D-07 BMatP= 4.02D-07
 IDIUse=1 WtCom= 1.00D+00 WtEn= 0.00D+00
 Coeff-Com:  0.170D+00-0.505D+00-0.546D+00 0.938D+00 0.943D+00
 Coeff:      0.170D+00-0.505D+00-0.546D+00 0.938D+00 0.943D+00
 Gap=     0.274 Goal=   None    Shift=    0.000
 Gap=     0.329 Goal=   None    Shift=    0.000
 RMSDP=1.76D-05 MaxDP=3.80D-04 DE=-1.76D-06 OVMax= 1.62D-03

 Cycle  15  Pass 1  IDiag  1:
 E= -344.570101301996     Delta-E=       -0.000000501492 Rises=F Damp=F
 DIIS: error= 3.39D-06 at cycle   6 NSaved=   6.
 NSaved= 6 IEnMin= 6 EnMin= -344.570101301996     IErMin= 6 ErrMin= 3.39D-06
 ErrMax= 3.39D-06  0.00D+00 EMaxC= 1.00D-01 BMatC= 2.25D-08 BMatP= 1.66D-07
 IDIUse=1 WtCom= 1.00D+00 WtEn= 0.00D+00
 Coeff-Com:  0.791D-01-0.135D+00-0.226D+00 0.179D+00 0.407D+00 0.696D+00
 Coeff:      0.791D-01-0.135D+00-0.226D+00 0.179D+00 0.407D+00 0.696D+00
 Gap=     0.274 Goal=   None    Shift=    0.000
 Gap=     0.329 Goal=   None    Shift=    0.000
 RMSDP=2.69D-06 MaxDP=5.36D-05 DE=-5.01D-07 OVMax= 2.57D-04

 Cycle  16  Pass 1  IDiag  1:
 E= -344.570101325004     Delta-E=       -0.000000023008 Rises=F Damp=F
 DIIS: error= 2.28D-06 at cycle   7 NSaved=   7.
 NSaved= 7 IEnMin= 7 EnMin= -344.570101325004     IErMin= 7 ErrMin= 2.28D-06
 ErrMax= 2.28D-06  0.00D+00 EMaxC= 1.00D-01 BMatC= 5.23D-09 BMatP= 2.25D-08
 IDIUse=1 WtCom= 1.00D+00 WtEn= 0.00D+00
 Coeff-Com: -0.315D-01 0.142D+00 0.122D+00-0.318D+00-0.165D+00 0.234D+00
 Coeff-Com:  0.102D+01
 Coeff:     -0.315D-01 0.142D+00 0.122D+00-0.318D+00-0.165D+00 0.234D+00
 Coeff:      0.102D+01
 Gap=     0.274 Goal=   None    Shift=    0.000
 Gap=     0.329 Goal=   None    Shift=    0.000
 RMSDP=1.96D-06 MaxDP=3.12D-05 DE=-2.30D-08 OVMax= 1.89D-04

 Cycle  17  Pass 1  IDiag  1:
 E= -344.570101333514     Delta-E=       -0.000000008510 Rises=F Damp=F
 DIIS: error= 1.13D-06 at cycle   8 NSaved=   8.
 NSaved= 8 IEnMin= 8 EnMin= -344.570101333514     IErMin= 8 ErrMin= 1.13D-06
 ErrMax= 1.13D-06  0.00D+00 EMaxC= 1.00D-01 BMatC= 7.62D-10 BMatP= 5.23D-09
 IDIUse=1 WtCom= 1.00D+00 WtEn= 0.00D+00
 Coeff-Com: -0.217D-01 0.594D-01 0.697D-01-0.116D+00-0.971D-01-0.634D-01
 Coeff-Com:  0.247D+00 0.923D+00
 Coeff:     -0.217D-01 0.594D-01 0.697D-01-0.116D+00-0.971D-01-0.634D-01
 Coeff:      0.247D+00 0.923D+00
 Gap=     0.274 Goal=   None    Shift=    0.000
 Gap=     0.329 Goal=   None    Shift=    0.000
 RMSDP=6.58D-07 MaxDP=1.16D-05 DE=-8.51D-09 OVMax= 6.30D-05

 Cycle  18  Pass 1  IDiag  1:
 E= -344.570101334810     Delta-E=       -0.000000001296 Rises=F Damp=F
 DIIS: error= 5.46D-07 at cycle   9 NSaved=   9.
 NSaved= 9 IEnMin= 9 EnMin= -344.570101334810     IErMin= 9 ErrMin= 5.46D-07
 ErrMax= 5.46D-07  0.00D+00 EMaxC= 1.00D-01 BMatC= 2.52D-10 BMatP= 7.62D-10
 IDIUse=1 WtCom= 1.00D+00 WtEn= 0.00D+00
 Coeff-Com:  0.233D-02-0.176D-01-0.135D-01 0.431D-01 0.196D-01-0.779D-01
 Coeff-Com: -0.191D+00 0.269D+00 0.966D+00
 Coeff:      0.233D-02-0.176D-01-0.135D-01 0.431D-01 0.196D-01-0.779D-01
 Coeff:     -0.191D+00 0.269D+00 0.966D+00
 Gap=     0.274 Goal=   None    Shift=    0.000
 Gap=     0.329 Goal=   None    Shift=    0.000
 RMSDP=3.92D-07 MaxDP=8.76D-06 DE=-1.30D-09 OVMax= 3.59D-05

 Cycle  19  Pass 1  IDiag  1:
 E= -344.570101335200     Delta-E=       -0.000000000389 Rises=F Damp=F
 DIIS: error= 2.99D-07 at cycle  10 NSaved=  10.
 NSaved=10 IEnMin=10 EnMin= -344.570101335200     IErMin=10 ErrMin= 2.99D-07
 ErrMax= 2.99D-07  0.00D+00 EMaxC= 1.00D-01 BMatC= 4.33D-11 BMatP= 2.52D-10
 IDIUse=1 WtCom= 1.00D+00 WtEn= 0.00D+00
 Coeff-Com:  0.637D-02-0.180D-01-0.230D-01 0.369D-01 0.333D-01 0.130D-01
 Coeff-Com: -0.829D-01-0.203D+00 0.369D-02 0.123D+01
 Coeff:      0.637D-02-0.180D-01-0.230D-01 0.369D-01 0.333D-01 0.130D-01
 Coeff:     -0.829D-01-0.203D+00 0.369D-02 0.123D+01
 Gap=     0.274 Goal=   None    Shift=    0.000
 Gap=     0.329 Goal=   None    Shift=    0.000
 RMSDP=1.90D-07 MaxDP=4.03D-06 DE=-3.89D-10 OVMax= 1.74D-05

 Cycle  20  Pass 1  IDiag  1:
 E= -344.570101335300     Delta-E=       -0.000000000101 Rises=F Damp=F
 DIIS: error= 1.17D-07 at cycle  11 NSaved=  11.
 NSaved=11 IEnMin=11 EnMin= -344.570101335300     IErMin=11 ErrMin= 1.17D-07
 ErrMax= 1.17D-07  0.00D+00 EMaxC= 1.00D-01 BMatC= 8.30D-12 BMatP= 4.33D-11
 IDIUse=1 WtCom= 1.00D+00 WtEn= 0.00D+00
 Coeff-Com: -0.540D-03 0.399D-02 0.277D-02-0.891D-02-0.450D-02 0.128D-01
 Coeff-Com:  0.373D-01-0.356D-01-0.215D+00-0.303D-01 0.124D+01
 Coeff:     -0.540D-03 0.399D-02 0.277D-02-0.891D-02-0.450D-02 0.128D-01
 Coeff:      0.373D-01-0.356D-01-0.215D+00-0.303D-01 0.124D+01
 Gap=     0.274 Goal=   None    Shift=    0.000
 Gap=     0.329 Goal=   None    Shift=    0.000
 RMSDP=8.03D-08 MaxDP=1.74D-06 DE=-1.01D-10 OVMax= 6.67D-06

 Cycle  21  Pass 1  IDiag  1:
 E= -344.570101335318     Delta-E=       -0.000000000017 Rises=F Damp=F
 DIIS: error= 5.56D-08 at cycle  12 NSaved=  12.
 NSaved=12 IEnMin=12 EnMin= -344.570101335318     IErMin=12 ErrMin= 5.56D-08
 ErrMax= 5.56D-08  0.00D+00 EMaxC= 1.00D-01 BMatC= 1.83D-12 BMatP= 8.30D-12
 IDIUse=1 WtCom= 1.00D+00 WtEn= 0.00D+00
 Coeff-Com: -0.117D-02 0.402D-02 0.455D-02-0.856D-02-0.690D-02 0.222D-02
 Coeff-Com:  0.256D-01 0.224D-01-0.657D-01-0.228D+00 0.379D+00 0.873D+00
 Coeff:     -0.117D-02 0.402D-02 0.455D-02-0.856D-02-0.690D-02 0.222D-02
 Coeff:      0.256D-01 0.224D-01-0.657D-01-0.228D+00 0.379D+00 0.873D+00
 Gap=     0.274 Goal=   None    Shift=    0.000
 Gap=     0.329 Goal=   None    Shift=    0.000
 RMSDP=2.28D-08 MaxDP=3.11D-07 DE=-1.73D-11 OVMax= 1.69D-06

 Cycle  22  Pass 1  IDiag  1:
 E= -344.570101335320     Delta-E=       -0.000000000002 Rises=F Damp=F
 DIIS: error= 2.24D-08 at cycle  13 NSaved=  13.
 NSaved=13 IEnMin=13 EnMin= -344.570101335320     IErMin=13 ErrMin= 2.24D-08
 ErrMax= 2.24D-08  0.00D+00 EMaxC= 1.00D-01 BMatC= 3.75D-13 BMatP= 1.83D-12
 IDIUse=1 WtCom= 1.00D+00 WtEn= 0.00D+00
 Coeff-Com: -0.960D-04-0.148D-03 0.336D-03 0.339D-03-0.535D-03-0.207D-02
 Coeff-Com: -0.315D-02 0.103D-01 0.389D-01-0.393D-01-0.187D+00 0.195D+00
 Coeff-Com:  0.987D+00
 Coeff:     -0.960D-04-0.148D-03 0.336D-03 0.339D-03-0.535D-03-0.207D-02
 Coeff:     -0.315D-02 0.103D-01 0.389D-01-0.393D-01-0.187D+00 0.195D+00
 Coeff:      0.987D+00
 Gap=     0.274 Goal=   None    Shift=    0.000
 Gap=     0.329 Goal=   None    Shift=    0.000
 RMSDP=8.82D-09 MaxDP=1.81D-07 DE=-2.27D-12 OVMax= 5.11D-07

 SCF Done:  E(UwB97XD) =  -344.570101335     A.U. after   22 cycles
            NFock= 22  Conv=0.88D-08     -V/T= 2.0083
 <Sx>= 0.0000 <Sy>= 0.0000 <Sz>= 0.5000 <S**2>= 0.7843 S= 0.5170
 <L.S>=  0.00000000000    
 KE= 3.417414040583D+02 PE=-1.397966000347D+03 EE= 4.150313290295D+02
 Annihilation of the first spin contaminant:
 S**2 before annihilation     0.7843,   after     0.7504
 Leave Link  502 at Tue May 20 11:59:01 2025, MaxMem=  3758096384 cpu:              59.4 elap:              11.9
 (Enter /gpfs/fs1/soft/bebop/software/custom-built/gaussian/16-c.02/g16/l508.exe)
 QCSCF skips out because SCF is already converged.
 Leave Link  508 at Tue May 20 11:59:01 2025, MaxMem=  3758096384 cpu:               0.0 elap:               0.0
 (Enter /gpfs/fs1/soft/bebop/software/custom-built/gaussian/16-c.02/g16/l601.exe)
 Copying SCF densities to generalized density rwf, IOpCl= 1 IROHF=0.

 **********************************************************************

            Population analysis using the SCF Density.

 **********************************************************************

 Orbital symmetries:
 Alpha Orbitals:
       Occupied  (A) (A) (A) (A) (A) (A) (A) (A) (A) (A) (A) (A)
                 (A) (A) (A) (A) (A) (A) (A) (A) (A) (A) (A) (A)
                 (A) (A) (A)
       Virtual   (A) (A) (A) (A) (A) (A) (A) (A) (A) (A) (A) (A)
                 (A) (A) (A) (A) (A) (A) (A) (A) (A) (A) (A) (A)
                 (A) (A) (A) (A) (A) (A) (A) (A) (A) (A) (A) (A)
                 (A) (A) (A) (A) (A) (A) (A) (A) (A) (A) (A) (A)
                 (A) (A) (A) (A) (A) (A) (A) (A) (A) (A) (A) (A)
                 (A) (A) (A) (A) (A) (A) (A) (A) (A) (A) (A) (A)
                 (A) (A) (A) (A) (A) (A) (A) (A) (A) (A) (A) (A)
                 (A) (A) (A) (A) (A) (A) (A) (A) (A) (A) (A) (A)
                 (A) (A) (A) (A) (A) (A) (A) (A) (A) (A)
 Beta  Orbitals:
       Occupied  (A) (A) (A) (A) (A) (A) (A) (A) (A) (A) (A) (A)
                 (A) (A) (A) (A) (A) (A) (A) (A) (A) (A) (A) (A)
                 (A) (A)
       Virtual   (A) (A) (A) (A) (A) (A) (A) (A) (A) (A) (A) (A)
                 (A) (A) (A) (A) (A) (A) (A) (A) (A) (A) (A) (A)
                 (A) (A) (A) (A) (A) (A) (A) (A) (A) (A) (A) (A)
                 (A) (A) (A) (A) (A) (A) (A) (A) (A) (A) (A) (A)
                 (A) (A) (A) (A) (A) (A) (A) (A) (A) (A) (A) (A)
                 (A) (A) (A) (A) (A) (A) (A) (A) (A) (A) (A) (A)
                 (A) (A) (A) (A) (A) (A) (A) (A) (A) (A) (A) (A)
                 (A) (A) (A) (A) (A) (A) (A) (A) (A) (A) (A) (A)
                 (A) (A) (A) (A) (A) (A) (A) (A) (A) (A) (A)
 The electronic state is 2-A.
 Alpha  occ. eigenvalues --  -19.33494 -19.31750 -10.36163 -10.30393 -10.29719
 Alpha  occ. eigenvalues --  -10.29507 -10.29322  -1.24102  -1.02899  -0.92110
 Alpha  occ. eigenvalues --   -0.82556  -0.77069  -0.67261  -0.65157  -0.62067
 Alpha  occ. eigenvalues --   -0.59286  -0.57376  -0.54373  -0.50663  -0.48052
 Alpha  occ. eigenvalues --   -0.46753  -0.45089  -0.43898  -0.38706  -0.38476
 Alpha  occ. eigenvalues --   -0.32503  -0.23311
 Alpha virt. eigenvalues --    0.04096   0.11628   0.14142   0.14882   0.16812
 Alpha virt. eigenvalues --    0.18003   0.19748   0.22069   0.22530   0.24706
 Alpha virt. eigenvalues --    0.29134   0.35120   0.39167   0.44270   0.45992
 Alpha virt. eigenvalues --    0.47977   0.51805   0.52624   0.55073   0.56931
 Alpha virt. eigenvalues --    0.58408   0.60484   0.63741   0.64506   0.67140
 Alpha virt. eigenvalues --    0.67760   0.71562   0.71869   0.73118   0.73788
 Alpha virt. eigenvalues --    0.75084   0.76348   0.78937   0.80269   0.83510
 Alpha virt. eigenvalues --    0.85289   0.86556   0.90375   0.90628   0.97861
 Alpha virt. eigenvalues --    1.01845   1.03461   1.08176   1.11984   1.19065
 Alpha virt. eigenvalues --    1.19542   1.22033   1.29172   1.33887   1.36712
 Alpha virt. eigenvalues --    1.41453   1.45709   1.48477   1.51204   1.59858
 Alpha virt. eigenvalues --    1.67300   1.69302   1.71058   1.71859   1.73958
 Alpha virt. eigenvalues --    1.76754   1.78056   1.82237   1.83051   1.86705
 Alpha virt. eigenvalues --    1.88598   1.91411   1.93839   1.95693   2.00599
 Alpha virt. eigenvalues --    2.03549   2.05445   2.10333   2.11667   2.17391
 Alpha virt. eigenvalues --    2.18332   2.24366   2.26680   2.27457   2.29807
 Alpha virt. eigenvalues --    2.38837   2.42939   2.46499   2.48357   2.52118
 Alpha virt. eigenvalues --    2.53280   2.55559   2.60025   2.64634   2.71884
 Alpha virt. eigenvalues --    2.78748   2.84136   2.86060   2.86608   2.93003
 Alpha virt. eigenvalues --    3.02192   3.03049   3.06631   3.14250   3.18079
 Alpha virt. eigenvalues --    3.23130   3.36094   3.43231   3.56407   3.65488
 Alpha virt. eigenvalues --    3.96579
  Beta  occ. eigenvalues --  -19.33423 -19.31714 -10.35971 -10.30677 -10.29550
  Beta  occ. eigenvalues --  -10.29166 -10.28434  -1.23956  -1.02613  -0.91351
  Beta  occ. eigenvalues --   -0.81813  -0.75172  -0.66728  -0.64787  -0.61401
  Beta  occ. eigenvalues --   -0.59058  -0.56919  -0.53829  -0.50055  -0.47667
  Beta  occ. eigenvalues --   -0.46013  -0.44544  -0.43520  -0.38068  -0.36099
  Beta  occ. eigenvalues --   -0.31138
  Beta virt. eigenvalues --    0.01733   0.04162   0.12552   0.14606   0.16572
  Beta virt. eigenvalues --    0.17340   0.18447   0.20723   0.22450   0.22816
  Beta virt. eigenvalues --    0.24995   0.29595   0.35497   0.39351   0.44734
  Beta virt. eigenvalues --    0.46199   0.48347   0.52435   0.52933   0.55587
  Beta virt. eigenvalues --    0.57554   0.59218   0.61322   0.64165   0.65682
  Beta virt. eigenvalues --    0.67060   0.68430   0.72254   0.72572   0.73950
  Beta virt. eigenvalues --    0.74420   0.75523   0.76916   0.79741   0.80620
  Beta virt. eigenvalues --    0.83910   0.85546   0.87047   0.90877   0.91173
  Beta virt. eigenvalues --    0.98127   1.01964   1.03672   1.08468   1.12253
  Beta virt. eigenvalues --    1.19426   1.19797   1.22516   1.29658   1.34965
  Beta virt. eigenvalues --    1.36986   1.41729   1.46260   1.48791   1.51455
  Beta virt. eigenvalues --    1.60336   1.67439   1.69656   1.71385   1.72173
  Beta virt. eigenvalues --    1.74228   1.77131   1.78606   1.82941   1.83623
  Beta virt. eigenvalues --    1.87096   1.88833   1.92257   1.94472   1.96934
  Beta virt. eigenvalues --    2.01369   2.04093   2.06036   2.10687   2.12438
  Beta virt. eigenvalues --    2.18145   2.18795   2.25723   2.27184   2.27778
  Beta virt. eigenvalues --    2.31304   2.39891   2.43797   2.47306   2.48823
  Beta virt. eigenvalues --    2.52595   2.53560   2.56382   2.61082   2.65379
  Beta virt. eigenvalues --    2.72214   2.79280   2.84524   2.86668   2.86960
  Beta virt. eigenvalues --    2.93938   3.02224   3.03657   3.07012   3.14662
  Beta virt. eigenvalues --    3.18298   3.23558   3.36335   3.43475   3.56748
  Beta virt. eigenvalues --    3.65544   3.96683
          Condensed to atoms (all electrons):
               1          2          3          4          5          6
     1  C    5.046738   0.340057   0.404673  -0.054372  -0.047947  -0.088577
     2  C    0.340057   4.977407  -0.046081   0.500494   0.426241  -0.059304
     3  H    0.404673  -0.046081   0.627585   0.005591  -0.002086  -0.000199
     4  C   -0.054372   0.500494   0.005591   4.821679  -0.048876   0.475159
     5  H   -0.047947   0.426241  -0.002086  -0.048876   0.632653   0.009822
     6  C   -0.088577  -0.059304  -0.000199   0.475159   0.009822   5.104345
     7  H    0.009069  -0.045380  -0.000299   0.420094  -0.007741  -0.048728
     8  H   -0.009499  -0.022569   0.000604   0.001168  -0.000339   0.368030
     9  H    0.003825   0.009645  -0.000036  -0.024226  -0.000168   0.378783
    10  C    0.519935  -0.050312  -0.024514  -0.037919   0.008281  -0.015095
    11  H   -0.042380   0.008015  -0.010930   0.003596  -0.000262  -0.006448
    12  O   -0.045451  -0.002444   0.002780  -0.004785   0.000014  -0.044407
    13  O    0.002308  -0.000635  -0.000059   0.000388   0.000013   0.004759
    14  H   -0.000246   0.000052  -0.000000   0.000033  -0.000002  -0.000786
               7          8          9         10         11         12
     1  C    0.009069  -0.009499   0.003825   0.519935  -0.042380  -0.045451
     2  C   -0.045380  -0.022569   0.009645  -0.050312   0.008015  -0.002444
     3  H   -0.000299   0.000604  -0.000036  -0.024514  -0.010930   0.002780
     4  C    0.420094   0.001168  -0.024226  -0.037919   0.003596  -0.004785
     5  H   -0.007741  -0.000339  -0.000168   0.008281  -0.000262   0.000014
     6  C   -0.048728   0.368030   0.378783  -0.015095  -0.006448  -0.044407
     7  H    0.637727   0.004398  -0.009431   0.003251  -0.000009  -0.000421
     8  H    0.004398   0.599617  -0.035006   0.013664   0.005415  -0.007330
     9  H   -0.009431  -0.035006   0.638113   0.000020  -0.000190   0.000354
    10  C    0.003251   0.013664   0.000020   4.867265   0.395340   0.277602
    11  H   -0.000009   0.005415  -0.000190   0.395340   0.631839  -0.037695
    12  O   -0.000421  -0.007330   0.000354   0.277602  -0.037695   7.987946
    13  O    0.000011   0.000010  -0.000010  -0.052179   0.009124   0.098624
    14  H   -0.000003   0.000121  -0.000019   0.002238   0.002194  -0.017793
              13         14
     1  C    0.002308  -0.000246
     2  C   -0.000635   0.000052
     3  H   -0.000059  -0.000000
     4  C    0.000388   0.000033
     5  H    0.000013  -0.000002
     6  C    0.004759  -0.000786
     7  H    0.000011  -0.000003
     8  H    0.000010   0.000121
     9  H   -0.000010  -0.000019
    10  C   -0.052179   0.002238
    11  H    0.009124   0.002194
    12  O    0.098624  -0.017793
    13  O    7.774623   0.311989
    14  H    0.311989   0.503264
          Atomic-Atomic Spin Densities.
               1          2          3          4          5          6
     1  C   -0.014722  -0.066135   0.006362   0.012198   0.000035  -0.037214
     2  C   -0.066135   0.588792  -0.007291   0.006669   0.006304  -0.022748
     3  H    0.006362  -0.007291   0.013960   0.000575  -0.000052  -0.002291
     4  C    0.012198   0.006669   0.000575  -0.260820  -0.000306  -0.034052
     5  H    0.000035   0.006304  -0.000052  -0.000306  -0.028470  -0.000354
     6  C   -0.037214  -0.022748  -0.002291  -0.034052  -0.000354   0.947168
     7  H   -0.000525  -0.004226  -0.000045   0.003883   0.000072  -0.002203
     8  H    0.007062  -0.000649   0.000387   0.001265   0.000018  -0.011676
     9  H    0.000379  -0.000424   0.000028   0.000186   0.000014  -0.002701
    10  C    0.046438  -0.012734  -0.004072   0.001973  -0.000482  -0.066606
    11  H   -0.001793   0.000108   0.000262  -0.000198   0.000012   0.000758
    12  O    0.002043   0.003799   0.000389   0.005029  -0.000001  -0.045651
    13  O    0.000161  -0.000135  -0.000013  -0.000202  -0.000001   0.002522
    14  H   -0.000042  -0.000025  -0.000003   0.000007   0.000000   0.000432
               7          8          9         10         11         12
     1  C   -0.000525   0.007062   0.000379   0.046438  -0.001793   0.002043
     2  C   -0.004226  -0.000649  -0.000424  -0.012734   0.000108   0.003799
     3  H   -0.000045   0.000387   0.000028  -0.004072   0.000262   0.000389
     4  C    0.003883   0.001265   0.000186   0.001973  -0.000198   0.005029
     5  H    0.000072   0.000018   0.000014  -0.000482   0.000012  -0.000001
     6  C   -0.002203  -0.011676  -0.002701  -0.066606   0.000758  -0.045651
     7  H    0.021573  -0.000552  -0.000628  -0.000475   0.000002  -0.000172
     8  H   -0.000552  -0.032895   0.004159   0.005253  -0.000110   0.002158
     9  H   -0.000628   0.004159  -0.033037   0.002075   0.000006   0.000554
    10  C   -0.000475   0.005253   0.002075   0.178452   0.002421  -0.011608
    11  H    0.000002  -0.000110   0.000006   0.002421  -0.009759  -0.000126
    12  O   -0.000172   0.002158   0.000554  -0.011608  -0.000126   0.047230
    13  O    0.000004  -0.000115  -0.000034  -0.000306   0.000415  -0.004733
    14  H    0.000002  -0.000021  -0.000023   0.000417  -0.000044  -0.000868
              13         14
     1  C    0.000161  -0.000042
     2  C   -0.000135  -0.000025
     3  H   -0.000013  -0.000003
     4  C   -0.000202   0.000007
     5  H   -0.000001   0.000000
     6  C    0.002522   0.000432
     7  H    0.000004   0.000002
     8  H   -0.000115  -0.000021
     9  H   -0.000034  -0.000023
    10  C   -0.000306   0.000417
    11  H    0.000415  -0.000044
    12  O   -0.004733  -0.000868
    13  O    0.018044   0.000243
    14  H    0.000243  -0.000342
 Mulliken charges and spin densities:
               1          2
     1  C   -0.038135  -0.045752
     2  C   -0.035186   0.491304
     3  H    0.042970   0.008196
     4  C   -0.058027  -0.263794
     5  H    0.030397  -0.023210
     6  C   -0.077356   0.725383
     7  H    0.037462   0.016710
     8  H    0.081716  -0.025716
     9  H    0.038346  -0.029447
    10  C    0.092423   0.140746
    11  H    0.042391  -0.008045
    12  O   -0.206994  -0.001956
    13  O   -0.148967   0.015848
    14  H    0.198960  -0.000268
 Sum of Mulliken charges =  -0.00000   1.00000
 Mulliken charges and spin densities with hydrogens summed into heavy atoms:
               1          2
     1  C    0.004835  -0.037556
     2  C   -0.004789   0.468095
     4  C   -0.020565  -0.247084
     6  C    0.042706   0.670220
    10  C    0.134814   0.132701
    12  O   -0.206994  -0.001956
    13  O    0.049993   0.015580
 Electronic spatial extent (au):  <R**2>=            733.0928
 Charge=             -0.0000 electrons
 Dipole moment (field-independent basis, Debye):
    X=             -0.5578    Y=              0.9195    Z=              1.1033  Tot=              1.5407
 Quadrupole moment (field-independent basis, Debye-Ang):
   XX=            -37.3046   YY=            -39.1024   ZZ=            -41.3916
   XY=             -4.6868   XZ=             -3.1809   YZ=             -1.6267
 Traceless Quadrupole moment (field-independent basis, Debye-Ang):
   XX=              1.9616   YY=              0.1638   ZZ=             -2.1254
   XY=             -4.6868   XZ=             -3.1809   YZ=             -1.6267
 Octapole moment (field-independent basis, Debye-Ang**2):
  XXX=            -35.9961  YYY=              3.5032  ZZZ=             -0.4019  XYY=             -6.6331
  XXY=             12.7150  XXZ=             -5.7684  XZZ=             -5.2176  YZZ=             -0.1751
  YYZ=             -0.2720  XYZ=              0.6219
 Hexadecapole moment (field-independent basis, Debye-Ang**3):
 XXXX=           -504.2675 YYYY=           -241.4565 ZZZZ=           -114.1113 XXXY=            -47.9917
 XXXZ=            -10.2559 YYYX=            -11.3236 YYYZ=             -8.3016 ZZZX=              1.0917
 ZZZY=             -3.0189 XXYY=           -121.7434 XXZZ=           -112.0664 YYZZ=            -59.1709
 XXYZ=             -6.1748 YYXZ=             -1.7383 ZZXY=             -1.9995
 N-N= 2.966231659234D+02 E-N=-1.397966001292D+03  KE= 3.417414040583D+02
                          Isotropic Fermi Contact Couplings
        Atom                 a.u.       MegaHertz       Gauss      10(-4) cm-1
     1  C(13)             -0.02604     -29.27223     -10.44506      -9.76417
     2  C(13)              0.08823      99.18987      35.39341      33.08618
     3  H(1)               0.00398      17.81080       6.35534       5.94104
     4  C(13)             -0.07325     -82.34265     -29.38191     -27.46655
     5  H(1)              -0.00711     -31.78894     -11.34309     -10.60365
     6  C(13)              0.19926     224.00620      79.93098      74.72042
     7  H(1)               0.00663      29.62085      10.56945       9.88045
     8  H(1)              -0.01018     -45.48987     -16.23192     -15.17379
     9  H(1)              -0.00811     -36.23008     -12.92779     -12.08505
    10  C(13)              0.02484      27.92447       9.96414       9.31460
    11  H(1)              -0.00254     -11.36435      -4.05508      -3.79074
    12  O(17)              0.16080     -97.47362     -34.78101     -32.51370
    13  O(17)             -0.00422       2.55820       0.91283       0.85332
    14  H(1)              -0.00017      -0.77911      -0.27801      -0.25988
 --------------------------------------------------------
       Center         ----  Spin Dipole Couplings  ----
                      3XX-RR        3YY-RR        3ZZ-RR
 --------------------------------------------------------
     1   Atom       -0.010730      0.006886      0.003844
     2   Atom        0.023503     -0.237844      0.214341
     3   Atom       -0.003748      0.008481     -0.004733
     4   Atom       -0.065918      0.101341     -0.035423
     5   Atom        0.012093     -0.016861      0.004768
     6   Atom        0.496565     -0.236915     -0.259650
     7   Atom       -0.002810      0.004259     -0.001449
     8   Atom       -0.020484     -0.026521      0.047005
     9   Atom       -0.008364      0.053184     -0.044820
    10   Atom       -0.048325      0.037186      0.011139
    11   Atom        0.001201     -0.005485      0.004284
    12   Atom       -0.023639     -0.005141      0.028779
    13   Atom        0.047607     -0.013920     -0.033686
    14   Atom        0.004923     -0.000095     -0.004828
 --------------------------------------------------------
                        XY            XZ            YZ
 --------------------------------------------------------
     1   Atom       -0.009841     -0.017848      0.007830
     2   Atom       -0.067998      0.348869     -0.075029
     3   Atom       -0.001873     -0.002526     -0.002514
     4   Atom       -0.008342     -0.154790      0.015430
     5   Atom       -0.026934     -0.010163      0.014875
     6   Atom        0.344434      0.329944      0.123846
     7   Atom       -0.005157     -0.006368      0.006295
     8   Atom        0.010989      0.010801     -0.031585
     9   Atom       -0.008485      0.016336     -0.001058
    10   Atom        0.076291      0.063544      0.116231
    11   Atom        0.010220     -0.010901     -0.001676
    12   Atom       -0.018245      0.004203      0.028099
    13   Atom        0.047348      0.017028      0.006038
    14   Atom       -0.002542      0.001456      0.000460
 --------------------------------------------------------


 ---------------------------------------------------------------------------------
              Anisotropic Spin Dipole Couplings in Principal Axis System
 ---------------------------------------------------------------------------------

       Atom             a.u.   MegaHertz   Gauss  10(-4) cm-1        Axes

              Baa    -0.0233    -3.122    -1.114    -1.041  0.8451  0.1420  0.5153
     1 C(13)  Bbb    -0.0010    -0.133    -0.047    -0.044  0.2033  0.8063 -0.5555
              Bcc     0.0243     3.255     1.161     1.086 -0.4944  0.5742  0.6525
 
              Baa    -0.2568   -34.464   -12.297   -11.496  0.4800  0.8492 -0.2202
     2 C(13)  Bbb    -0.2377   -31.895   -11.381   -10.639  0.6378 -0.5102 -0.5770
              Bcc     0.4945    66.358    23.678    22.135  0.6023 -0.1365  0.7865
 
              Baa    -0.0074    -3.965    -1.415    -1.322  0.6199  0.1931  0.7605
     3 H(1)   Bbb    -0.0017    -0.890    -0.318    -0.297  0.7766 -0.0127 -0.6299
              Bcc     0.0091     4.855     1.732     1.619 -0.1120  0.9811 -0.1578
 
              Baa    -0.2063   -27.679    -9.877    -9.233  0.7404 -0.0136  0.6720
     4 C(13)  Bbb     0.0860    11.542     4.118     3.850  0.4580  0.7420 -0.4895
              Bcc     0.1203    16.137     5.758     5.383 -0.4920  0.6703  0.5556
 
              Baa    -0.0346   -18.454    -6.585    -6.156  0.4539  0.8659 -0.2101
     5 H(1)   Bbb    -0.0022    -1.165    -0.416    -0.389  0.5061 -0.0565  0.8606
              Bcc     0.0368    19.620     7.001     6.544  0.7334 -0.4970 -0.4639
 
              Baa    -0.3850   -51.667   -18.436   -17.234 -0.4381  0.3147  0.8420
     6 C(13)  Bbb    -0.3703   -49.685   -17.729   -16.573 -0.1882  0.8838 -0.4283
              Bcc     0.7553   101.352    36.165    33.807  0.8790  0.3461  0.3280
 
              Baa    -0.0086    -4.563    -1.628    -1.522  0.7219 -0.0486  0.6903
     7 H(1)   Bbb    -0.0038    -2.053    -0.732    -0.685  0.5139  0.7057 -0.4878
              Bcc     0.0124     6.616     2.361     2.207 -0.4634  0.7068  0.5344
 
              Baa    -0.0461   -24.579    -8.770    -8.199 -0.4869  0.8084  0.3308
     8 H(1)   Bbb    -0.0132    -7.019    -2.505    -2.341  0.8697  0.4838  0.0979
              Bcc     0.0592    31.598    11.275    10.540  0.0810 -0.3354  0.9386
 
              Baa    -0.0511   -27.270    -9.731    -9.096 -0.3604 -0.0199  0.9326
     9 H(1)   Bbb    -0.0033    -1.778    -0.635    -0.593  0.9219  0.1451  0.3593
              Bcc     0.0544    29.048    10.365     9.689 -0.1425  0.9892 -0.0340
 
              Baa    -0.0952   -12.769    -4.556    -4.259 -0.5452  0.7082 -0.4485
    10 C(13)  Bbb    -0.0884   -11.867    -4.234    -3.958  0.7402  0.1557 -0.6541
              Bcc     0.1836    24.635     8.791     8.217  0.3934  0.6886  0.6091
 
              Baa    -0.0146    -7.799    -2.783    -2.602 -0.6599  0.6797 -0.3203
    11 H(1)   Bbb    -0.0022    -1.184    -0.423    -0.395  0.3190  0.6394  0.6996
              Bcc     0.0168     8.984     3.206     2.997  0.6803  0.3595 -0.6387
 
              Baa    -0.0405     2.931     1.046     0.978  0.7349  0.6118 -0.2927
    12 O(17)  Bbb    -0.0046     0.331     0.118     0.111  0.6731 -0.6052  0.4250
              Bcc     0.0451    -3.262    -1.164    -1.088 -0.0828  0.5093  0.8566
 
              Baa    -0.0413     2.986     1.066     0.996 -0.4793  0.7185  0.5041
    13 O(17)  Bbb    -0.0349     2.528     0.902     0.843  0.1204 -0.5151  0.8486
              Bcc     0.0762    -5.514    -1.968    -1.839  0.8693  0.4675  0.1604
 
              Baa    -0.0052    -2.770    -0.988    -0.924 -0.1841 -0.1790  0.9665
    14 H(1)   Bbb    -0.0009    -0.491    -0.175    -0.164  0.3384  0.9116  0.2333
              Bcc     0.0061     3.261     1.164     1.088  0.9228 -0.3700  0.1073
 

 ---------------------------------------------------------------------------------

 No NMR shielding tensors so no spin-rotation constants.
 Leave Link  601 at Tue May 20 11:59:01 2025, MaxMem=  3758096384 cpu:               0.8 elap:               0.2
 (Enter /gpfs/fs1/soft/bebop/software/custom-built/gaussian/16-c.02/g16/l701.exe)
 ... and contract with generalized density number  0.
 Compute integral first derivatives.
 R6Disp: Adding Grimme-D2 dispersion energy 1st derivatives to the gradient.
   1 Symmetry operations used in ECPInt.
 ECPInt:  NShTT=    2016 NPrTT=    7252 LenC2=    2009 LenP2D=    5974.
 LDataN:  DoStor=T MaxTD1= 5 Len=  102
 Leave Link  701 at Tue May 20 11:59:01 2025, MaxMem=  3758096384 cpu:               0.5 elap:               0.1
 (Enter /gpfs/fs1/soft/bebop/software/custom-built/gaussian/16-c.02/g16/l702.exe)
 L702 exits ... SP integral derivatives will be done elsewhere.
 Leave Link  702 at Tue May 20 11:59:01 2025, MaxMem=  3758096384 cpu:               0.1 elap:               0.0
 (Enter /gpfs/fs1/soft/bebop/software/custom-built/gaussian/16-c.02/g16/l703.exe)
 Integral derivatives from FoFJK, PRISM(SPDF).
 Compute integral first derivatives, UseDBF=F ICtDFT=           0.
 Calling FoFJK, ICntrl=      2127 FMM=F ISym2X=0 I1Cent= 0 IOpClX= 1 NMat=1 NMatS=1 NMatT=0.
 FoFJK:  IHMeth= 1 ICntrl=    2127 DoSepK=T KAlg= 0 I1Cent=           0 FoldK=F
 IRaf=         1 NMat=       1 IRICut=       1 DoRegI=T DoRafI=F ISym2E= 0 IDoP0=0 IntGTp=1.
 FoFCou: FMM=F IPFlag=           0 FMFlag=      100000 FMFlg1=         800
         NFxFlg=           0 DoJE=F BraDBF=F KetDBF=F FulRan=T
         wScrn=  0.000000 ICntrl=      2527 IOpCl=  0 I1Cent=           0 NGrid=           0
         NMat0=    1 NMatS0=      1 NMatT0=    0 NMatD0=    1 NMtDS0=    0 NMtDT0=    0
 Symmetry not used in FoFCou.
 Leave Link  703 at Tue May 20 11:59:03 2025, MaxMem=  3758096384 cpu:              12.1 elap:               2.0
 (Enter /gpfs/fs1/soft/bebop/software/custom-built/gaussian/16-c.02/g16/l716.exe)
 Dipole        =-2.19469388D-01 3.61746107D-01 4.34054461D-01
 ***** Axes restored to original set *****
 -------------------------------------------------------------------
 Center     Atomic                   Forces (Hartrees/Bohr)
 Number     Number              X              Y              Z
 -------------------------------------------------------------------
      1        6          -0.000069887   -0.000183448    0.001106496
      2        6           0.000274215    0.000101469    0.000409699
      3        1          -0.000241971    0.000041114   -0.000158736
      4        6           0.000339280    0.000176754    0.000199707
      5        1          -0.000064936    0.000015302    0.000072849
      6        6          -0.010695370   -0.040980523    0.046218367
      7        1           0.000039992   -0.000055559    0.000018997
      8        1           0.000057109   -0.000258974    0.000148141
      9        1          -0.000078044    0.000067768   -0.000089698
     10        6           0.011185664    0.040789407   -0.047576370
     11        1          -0.000372824   -0.000284536   -0.000010744
     12        8          -0.000214902    0.000322130   -0.000244366
     13        8          -0.000147876    0.000257355   -0.000085674
     14        1          -0.000010450   -0.000008260   -0.000008667
 -------------------------------------------------------------------
 Cartesian Forces:  Max     0.047576370 RMS     0.013788173
 -----------------------------------------------------------------------------------------------
                       Internal Coordinate Forces (Hartree/Bohr or radian)
  Cent   Atom   N1       Length/X         N2         Alpha/Y        N3         Beta/Z          J
 -----------------------------------------------------------------------------------------------
      1  C 
      2  C        1  -0.001049(     1)
      3  H        1  -0.000115(     2)      2   0.000549(    14)
      4  C        2  -0.000739(     3)      1  -0.001390(    15)      3  -0.000073(    26)     0
      5  H        2   0.000011(     4)      1   0.000168(    16)      4   0.000093(    27)     0
      6  C        4   0.001197(     5)      2   0.002186(    17)      1   0.000286(    28)     0
      7  H        4   0.000009(     6)      2   0.000029(    18)      6  -0.000122(    29)     0
      8  H        6   0.000019(     7)      4   0.000072(    19)      2   0.000105(    30)     0
      9  H        6   0.000002(     8)      4   0.000117(    20)      8   0.000227(    31)     0
     10  C        6   0.064152(     9)      4   0.005464(    21)      8  -0.000638(    32)     0
     11  H       10   0.000060(    10)      6  -0.000715(    22)      4   0.000715(    33)     0
     12  O       10   0.000359(    11)      6   0.001228(    23)     11   0.000192(    34)     0
     13  O       12   0.000251(    12)     10   0.000268(    24)      1  -0.000399(    35)     0
     14  H       13   0.000013(    13)     12   0.000011(    25)     10  -0.000012(    36)     0
 -----------------------------------------------------------------------------------------------
 Internal  Forces:  Max     0.064152368 RMS     0.010748522
 Force constants in internal coordinates: 
                1             2             3             4             5 
      1  0.623845D+00
      2  0.000000D+00  0.344113D+00
      3 -0.526602D-01  0.000000D+00  0.734677D+00
      4  0.000000D+00  0.000000D+00  0.000000D+00  0.347895D+00
      5 -0.238485D+00  0.000000D+00  0.239041D+00  0.000000D+00  0.846635D+00
      6  0.000000D+00  0.000000D+00  0.000000D+00  0.000000D+00  0.000000D+00
      7  0.000000D+00  0.000000D+00  0.000000D+00  0.000000D+00  0.000000D+00
      8  0.000000D+00  0.000000D+00  0.000000D+00  0.000000D+00  0.000000D+00
      9 -0.106845D+00  0.000000D+00 -0.884196D-01  0.000000D+00  0.258636D-01
     10  0.000000D+00  0.000000D+00  0.000000D+00  0.000000D+00  0.000000D+00
     11  0.000000D+00  0.000000D+00  0.000000D+00  0.000000D+00  0.000000D+00
     12  0.000000D+00  0.000000D+00  0.000000D+00  0.000000D+00  0.000000D+00
     13  0.000000D+00  0.000000D+00  0.000000D+00  0.000000D+00  0.000000D+00
     14 -0.518112D-01  0.000000D+00 -0.357924D-01  0.000000D+00  0.213810D-01
     15 -0.258328D+00  0.000000D+00  0.879718D+00  0.000000D+00  0.895953D+00
     16  0.000000D+00  0.000000D+00  0.000000D+00  0.000000D+00  0.000000D+00
     17 -0.885774D+00  0.000000D+00  0.119921D+01  0.000000D+00  0.170529D+01
     18  0.000000D+00  0.000000D+00  0.000000D+00  0.000000D+00  0.000000D+00
     19 -0.475934D-03  0.000000D+00 -0.262090D-04  0.000000D+00  0.512520D-03
     20  0.552042D-03  0.000000D+00  0.304001D-04  0.000000D+00 -0.594479D-03
     21 -0.113296D+01  0.000000D+00  0.872887D+00  0.000000D+00  0.167641D+01
     22  0.334409D-01  0.000000D+00  0.382328D-01  0.000000D+00  0.200778D-02
     23  0.401578D-01  0.000000D+00  0.445556D-01  0.000000D+00  0.993922D-03
     24  0.000000D+00  0.000000D+00  0.000000D+00  0.000000D+00  0.000000D+00
     25  0.000000D+00  0.000000D+00  0.000000D+00  0.000000D+00  0.000000D+00
     26 -0.108817D-01  0.000000D+00  0.466598D-02  0.000000D+00  0.172190D-01
     27  0.000000D+00  0.000000D+00 -0.317468D-02  0.000000D+00 -0.331672D-02
     28  0.119443D+00  0.000000D+00 -0.355823D+00  0.000000D+00 -0.346217D+00
     29  0.000000D+00  0.000000D+00  0.000000D+00  0.000000D+00  0.000000D+00
     30  0.386096D+00  0.000000D+00 -0.737535D+00  0.000000D+00 -0.863957D+00
     31 -0.280619D-03  0.000000D+00 -0.154533D-04  0.000000D+00  0.302192D-03
     32  0.386256D+00  0.000000D+00 -0.737526D+00  0.000000D+00 -0.864130D+00
     33 -0.978152D-01  0.000000D+00 -0.364233D-01  0.000000D+00  0.729092D-01
     34 -0.591118D-01  0.000000D+00 -0.148563D-01  0.000000D+00  0.515358D-01
     35  0.104100D-01  0.000000D+00  0.155599D-01  0.000000D+00  0.444696D-02
     36  0.000000D+00  0.000000D+00  0.000000D+00  0.000000D+00  0.000000D+00
                6             7             8             9            10 
      6  0.342299D+00
      7  0.000000D+00  0.350098D+00
      8  0.000000D+00  0.000000D+00  0.342299D+00
      9  0.000000D+00  0.000000D+00  0.000000D+00  0.172018D+00
     10  0.000000D+00  0.000000D+00  0.000000D+00  0.000000D+00  0.340161D+00
     11  0.000000D+00  0.000000D+00  0.000000D+00  0.000000D+00  0.000000D+00
     12  0.000000D+00  0.000000D+00  0.000000D+00  0.000000D+00  0.000000D+00
     13  0.000000D+00  0.000000D+00  0.000000D+00  0.000000D+00  0.000000D+00
     14  0.000000D+00  0.000000D+00  0.000000D+00  0.423120D-01  0.000000D+00
     15  0.000000D+00  0.000000D+00  0.000000D+00 -0.257092D+00  0.000000D+00
     16  0.000000D+00  0.000000D+00  0.000000D+00  0.000000D+00  0.000000D+00
     17  0.000000D+00  0.000000D+00  0.000000D+00 -0.459975D-01  0.000000D+00
     18  0.000000D+00  0.000000D+00  0.000000D+00  0.000000D+00  0.000000D+00
     19  0.000000D+00  0.000000D+00  0.000000D+00  0.000000D+00  0.000000D+00
     20  0.000000D+00  0.000000D+00  0.000000D+00  0.000000D+00  0.000000D+00
     21  0.000000D+00  0.000000D+00  0.000000D+00  0.266515D+00  0.000000D+00
     22  0.000000D+00  0.000000D+00  0.000000D+00 -0.467463D-01  0.000000D+00
     23  0.000000D+00  0.000000D+00  0.000000D+00 -0.543932D-01  0.000000D+00
     24  0.000000D+00  0.000000D+00  0.000000D+00  0.000000D+00  0.000000D+00
     25  0.000000D+00  0.000000D+00  0.000000D+00  0.000000D+00  0.000000D+00
     26  0.000000D+00  0.000000D+00  0.000000D+00 -0.676343D-02  0.000000D+00
     27  0.000000D+00  0.000000D+00  0.000000D+00  0.407803D-02  0.000000D+00
     28  0.000000D+00  0.000000D+00  0.000000D+00  0.116349D-01  0.000000D+00
     29  0.000000D+00  0.000000D+00  0.000000D+00  0.000000D+00  0.000000D+00
     30  0.000000D+00  0.000000D+00  0.000000D+00  0.345863D-02  0.000000D+00
     31  0.000000D+00  0.000000D+00  0.000000D+00  0.000000D+00  0.000000D+00
     32  0.000000D+00  0.000000D+00  0.000000D+00  0.345863D-02  0.000000D+00
     33  0.000000D+00  0.000000D+00  0.000000D+00  0.398681D-01  0.000000D+00
     34  0.000000D+00  0.000000D+00  0.000000D+00  0.149022D-01  0.000000D+00
     35  0.000000D+00  0.000000D+00  0.000000D+00 -0.192510D-01  0.000000D+00
     36  0.000000D+00  0.000000D+00  0.000000D+00  0.000000D+00  0.000000D+00
               11            12            13            14            15 
     11  0.505182D+00
     12  0.000000D+00  0.406038D+00
     13  0.000000D+00  0.000000D+00  0.539946D+00
     14  0.000000D+00  0.000000D+00  0.000000D+00  0.316068D+00
     15  0.000000D+00  0.000000D+00  0.000000D+00 -0.168893D+00  0.369474D+01
     16  0.000000D+00  0.000000D+00  0.000000D+00  0.000000D+00  0.159725D+00
     17  0.000000D+00  0.000000D+00  0.000000D+00 -0.448274D-01  0.458726D+01
     18  0.000000D+00  0.000000D+00  0.000000D+00  0.000000D+00  0.180798D-05
     19  0.000000D+00  0.000000D+00  0.000000D+00  0.000000D+00  0.394369D-02
     20  0.000000D+00  0.000000D+00  0.000000D+00  0.000000D+00  0.242549D-02
     21  0.000000D+00  0.000000D+00  0.000000D+00  0.103189D+00  0.354769D+01
     22  0.000000D+00  0.000000D+00  0.000000D+00 -0.892742D-02  0.527615D-01
     23  0.000000D+00  0.000000D+00  0.000000D+00  0.105002D-01  0.108076D+00
     24  0.000000D+00  0.000000D+00  0.000000D+00  0.000000D+00  0.000000D+00
     25  0.000000D+00  0.000000D+00  0.000000D+00  0.000000D+00  0.000000D+00
     26  0.000000D+00  0.000000D+00  0.000000D+00  0.847815D-02 -0.863149D-02
     27  0.000000D+00  0.000000D+00  0.000000D+00  0.000000D+00 -0.179224D-01
     28  0.000000D+00  0.000000D+00  0.000000D+00  0.150210D+00 -0.134605D+01
     29  0.000000D+00  0.000000D+00  0.000000D+00  0.000000D+00 -0.762693D-03
     30  0.000000D+00  0.000000D+00  0.000000D+00  0.167663D+00 -0.275509D+01
     31  0.000000D+00  0.000000D+00  0.000000D+00  0.000000D+00 -0.754064D-03
     32  0.000000D+00  0.000000D+00  0.000000D+00  0.167663D+00 -0.275426D+01
     33  0.000000D+00  0.000000D+00  0.000000D+00 -0.308278D-03 -0.717254D-02
     34  0.000000D+00  0.000000D+00  0.000000D+00  0.250523D-02  0.234124D-01
     35  0.000000D+00  0.000000D+00  0.000000D+00  0.000000D+00  0.344730D-01
     36  0.000000D+00  0.000000D+00  0.000000D+00  0.000000D+00  0.000000D+00
               16            17            18            19            20 
     16  0.319776D+00
     17  0.000000D+00  0.821651D+01
     18  0.000000D+00  0.159613D+00  0.319757D+00
     19  0.000000D+00  0.538225D-02  0.000000D+00  0.325040D+00
     20  0.000000D+00  0.760564D-03  0.000000D+00  0.143216D+00  0.356525D+00
     21  0.000000D+00  0.718090D+01  0.000000D+00 -0.229569D-01  0.610790D-01
     22  0.000000D+00 -0.416456D-03  0.000000D+00  0.000000D+00  0.000000D+00
     23  0.000000D+00  0.539183D-01  0.000000D+00  0.000000D+00  0.000000D+00
     24  0.000000D+00  0.000000D+00  0.000000D+00  0.000000D+00  0.000000D+00
     25  0.000000D+00  0.000000D+00  0.000000D+00  0.000000D+00  0.000000D+00
     26 -0.137172D-03  0.257166D-01  0.175102D-04  0.535456D-03 -0.304342D-02
     27 -0.302235D-02 -0.174215D-01  0.000000D+00  0.000000D+00  0.000000D+00
     28 -0.288878D-02 -0.179821D+01  0.278440D-04 -0.376189D-03 -0.510481D-02
     29 -0.144439D-02  0.517772D-02  0.287670D-02  0.000000D+00  0.000000D+00
     30  0.000000D+00 -0.413635D+01  0.423235D-02  0.349868D-03 -0.349086D-02
     31  0.000000D+00  0.765254D-03  0.141078D-02 -0.402979D-01  0.107387D-01
     32  0.000000D+00 -0.413712D+01  0.141078D-02 -0.350372D-01 -0.560207D-01
     33  0.000000D+00  0.277133D+00  0.000000D+00 -0.476920D-02  0.553186D-02
     34  0.000000D+00  0.210473D+00  0.000000D+00 -0.238460D-02  0.276593D-02
     35  0.000000D+00  0.264553D-01  0.000000D+00  0.000000D+00  0.000000D+00
     36  0.000000D+00  0.000000D+00  0.000000D+00  0.000000D+00  0.000000D+00
               21            22            23            24            25 
     21  0.786231D+01
     22 -0.126515D+00  0.299828D+00
     23 -0.867952D-01  0.489510D-01  0.460232D+00
     24  0.000000D+00  0.000000D+00  0.000000D+00  0.250000D+00
     25  0.000000D+00  0.000000D+00  0.000000D+00  0.000000D+00  0.160000D+00
     26  0.394138D-01  0.232877D-01 -0.312920D-01  0.000000D+00  0.000000D+00
     27 -0.137275D-01  0.000000D+00  0.000000D+00  0.000000D+00  0.000000D+00
     28 -0.146645D+01  0.490369D-02  0.792545D-01  0.000000D+00  0.000000D+00
     29  0.000000D+00  0.000000D+00  0.000000D+00  0.000000D+00  0.000000D+00
     30 -0.366378D+01  0.200432D-01  0.127152D+00  0.000000D+00  0.000000D+00
     31  0.765966D-01  0.000000D+00  0.000000D+00  0.000000D+00  0.000000D+00
     32 -0.366190D+01  0.200432D-01  0.127152D+00  0.000000D+00  0.000000D+00
     33  0.392637D+00  0.618698D-02 -0.188366D-02  0.000000D+00  0.000000D+00
     34  0.256685D+00  0.323545D-01 -0.795502D-01  0.000000D+00  0.000000D+00
     35 -0.236625D-01  0.218777D-01  0.383178D-01  0.000000D+00  0.000000D+00
     36  0.000000D+00  0.000000D+00  0.000000D+00  0.000000D+00  0.000000D+00
               26            27            28            29            30 
     26  0.139797D+00
     27  0.119402D-01  0.107536D+00
     28  0.961724D-01 -0.735188D-01  0.156941D+01
     29 -0.485950D-03 -0.225961D-01  0.448650D-01  0.137459D+00
     30  0.401349D-01 -0.201271D-01  0.230116D+01 -0.600544D-01  0.418976D+01
     31  0.129534D-02  0.000000D+00  0.183554D-02 -0.200181D-01  0.421839D-01
     32  0.371756D-01 -0.201271D-01  0.229865D+01 -0.200181D-01  0.410811D+01
     33 -0.383323D-03  0.000000D+00  0.252800D+00  0.000000D+00  0.404623D+00
     34 -0.854031D-02  0.000000D+00  0.197909D+00  0.000000D+00  0.316509D+00
     35  0.000000D+00  0.000000D+00  0.312144D-01  0.000000D+00  0.507191D-01
     36  0.000000D+00  0.000000D+00  0.000000D+00  0.000000D+00  0.000000D+00
               31            32            33            34            35 
     31  0.183749D+00
     32 -0.102376D+00  0.431279D+01
     33 -0.281201D-02  0.406225D+00  0.358641D+00
     34 -0.140601D-02  0.317310D+00  0.249653D+00  0.351508D+00
     35  0.000000D+00  0.507191D-01  0.182197D-01  0.169800D-01  0.617063D-01
     36  0.000000D+00  0.000000D+00  0.000000D+00  0.000000D+00  0.000000D+00
               36 
     36  0.862247D-02
 Leave Link  716 at Tue May 20 11:59:03 2025, MaxMem=  3758096384 cpu:               0.2 elap:               0.0
 (Enter /gpfs/fs1/soft/bebop/software/custom-built/gaussian/16-c.02/g16/l103.exe)

 GradGradGradGradGradGradGradGradGradGradGradGradGradGradGradGradGradGrad
 Berny optimization.
 Search for a local minimum.
 Step number   1 out of a maximum of   46
 All quantities printed in internal units (Hartrees-Bohrs-Radians)
 Second derivative matrix not updated -- first step.
 ITU=  0
     Eigenvalues ---    0.00862   0.03465   0.05343   0.05609   0.08558
     Eigenvalues ---    0.09096   0.12851   0.16000   0.18138   0.19814
     Eigenvalues ---    0.21471   0.25000   0.25509   0.28131   0.29763
     Eigenvalues ---    0.30023   0.34016   0.34230   0.34230   0.34411
     Eigenvalues ---    0.34790   0.35010   0.38227   0.40604   0.41035
     Eigenvalues ---    0.45786   0.47967   0.49037   0.50518   0.52195
     Eigenvalues ---    0.53995   0.55372   1.77444   4.35202  24.18795
     Eigenvalues --- 1000.00000
 RFO step:  Lambda=-2.57274701D-05 EMin= 8.62246652D-03
 Linear search not attempted -- first point.
 Variable       Old X    -DE/DX   Delta X   Delta X   Delta X     New X
                                 (Linear)    (Quad)   (Total)
    R1        2.71195  -0.00105   0.00000   0.00063   0.00063   2.71257
    R2        2.06642  -0.00011   0.00000  -0.00033  -0.00033   2.06608
    R3        2.61803  -0.00074   0.00000  -0.00069  -0.00069   2.61734
    R4        2.06018   0.00001   0.00000   0.00003   0.00003   2.06021
    R5        2.65223   0.00120   0.00000   0.00076   0.00076   2.65299
    R6        2.06944   0.00001   0.00000   0.00003   0.00003   2.06947
    R7        2.05659   0.00002   0.00000   0.00005   0.00005   2.05664
[...]
 Alpha  occ. eigenvalues --   -0.32830  -0.26883
 Alpha virt. eigenvalues --    0.04384   0.09895   0.12900   0.15249   0.16607
 Alpha virt. eigenvalues --    0.18059   0.20272   0.20761   0.22506   0.23332
 Alpha virt. eigenvalues --    0.30523   0.33039   0.34886   0.42626   0.46809
 Alpha virt. eigenvalues --    0.47132   0.51648   0.53162   0.55206   0.55952
 Alpha virt. eigenvalues --    0.58795   0.61714   0.62385   0.62642   0.65600
 Alpha virt. eigenvalues --    0.68096   0.70475   0.72097   0.72594   0.73048
 Alpha virt. eigenvalues --    0.75514   0.75742   0.77054   0.77885   0.81240
 Alpha virt. eigenvalues --    0.83341   0.84976   0.86018   0.89594   0.98690
 Alpha virt. eigenvalues --    1.03280   1.07797   1.10041   1.11886   1.14857
 Alpha virt. eigenvalues --    1.17427   1.26215   1.27800   1.30171   1.32453
 Alpha virt. eigenvalues --    1.35987   1.41857   1.49202   1.54392   1.57040
 Alpha virt. eigenvalues --    1.59176   1.61225   1.68552   1.72390   1.73494
 Alpha virt. eigenvalues --    1.76339   1.78825   1.79971   1.81336   1.85900
 Alpha virt. eigenvalues --    1.87183   1.91460   1.93828   1.97597   2.00854
 Alpha virt. eigenvalues --    2.01441   2.02623   2.04468   2.08001   2.15804
 Alpha virt. eigenvalues --    2.17958   2.21452   2.22832   2.28581   2.29491
 Alpha virt. eigenvalues --    2.32055   2.35738   2.42157   2.49040   2.51426
 Alpha virt. eigenvalues --    2.52866   2.55474   2.56800   2.61752   2.67289
 Alpha virt. eigenvalues --    2.73997   2.79839   2.81003   2.90578   2.91779
 Alpha virt. eigenvalues --    2.98199   3.02879   3.04054   3.09202   3.16701
 Alpha virt. eigenvalues --    3.24473   3.24865   3.41096   3.44047   3.66492
 Alpha virt. eigenvalues --    3.94144
  Beta  occ. eigenvalues --  -19.31295 -19.30671 -10.37384 -10.33237 -10.31156
  Beta  occ. eigenvalues --  -10.30807 -10.30256  -1.22116  -1.00506  -0.90873
  Beta  occ. eigenvalues --   -0.80447  -0.76077  -0.67291  -0.62860  -0.61281
  Beta  occ. eigenvalues --   -0.58857  -0.54387  -0.52624  -0.50916  -0.49561
  Beta  occ. eigenvalues --   -0.47416  -0.45761  -0.39231  -0.36978  -0.35452
  Beta  occ. eigenvalues --   -0.32581
  Beta virt. eigenvalues --   -0.00691   0.04343   0.12151   0.13106   0.15494
  Beta virt. eigenvalues --    0.16838   0.18181   0.20459   0.21244   0.22829
  Beta virt. eigenvalues --    0.23574   0.31004   0.33707   0.35782   0.43191
  Beta virt. eigenvalues --    0.47084   0.47464   0.52266   0.54071   0.55702
  Beta virt. eigenvalues --    0.56892   0.59099   0.62235   0.62692   0.65499
  Beta virt. eigenvalues --    0.66079   0.68547   0.71182   0.72223   0.73476
  Beta virt. eigenvalues --    0.73565   0.75655   0.75982   0.77176   0.78143
  Beta virt. eigenvalues --    0.81695   0.83810   0.85356   0.86470   0.89946
  Beta virt. eigenvalues --    0.98798   1.03332   1.07886   1.10304   1.12074
  Beta virt. eigenvalues --    1.14977   1.17542   1.26355   1.28442   1.30774
  Beta virt. eigenvalues --    1.32692   1.37472   1.41914   1.49362   1.54497
  Beta virt. eigenvalues --    1.57091   1.60158   1.61811   1.69162   1.72727
  Beta virt. eigenvalues --    1.74114   1.76715   1.79426   1.80441   1.82131
  Beta virt. eigenvalues --    1.86545   1.87898   1.92066   1.94475   1.98099
  Beta virt. eigenvalues --    2.01612   2.02201   2.03654   2.04839   2.08986
  Beta virt. eigenvalues --    2.16390   2.19083   2.21658   2.23527   2.28621
  Beta virt. eigenvalues --    2.30177   2.32162   2.37306   2.43236   2.49438
  Beta virt. eigenvalues --    2.52427   2.53926   2.55664   2.57898   2.62633
  Beta virt. eigenvalues --    2.67658   2.74680   2.80281   2.81430   2.90999
  Beta virt. eigenvalues --    2.92130   2.98909   3.02975   3.04429   3.09515
  Beta virt. eigenvalues --    3.16980   3.24635   3.24919   3.41241   3.44458
  Beta virt. eigenvalues --    3.66513   3.94173
          Condensed to atoms (all electrons):
               1          2          3          4          5          6
     1  C    5.164900   0.492238   0.395042  -0.015358  -0.054548  -0.109097
     2  C    0.492238   4.700422  -0.026065   0.514733   0.426135  -0.036586
     3  H    0.395042  -0.026065   0.627125   0.006739  -0.007303   0.005299
     4  C   -0.015358   0.514733   0.006739   5.038306  -0.052691   0.316133
     5  H   -0.054548   0.426135  -0.007303  -0.052691   0.652114   0.009764
     6  C   -0.109097  -0.036586   0.005299   0.316133   0.009764   4.845950
     7  H    0.006827  -0.029099  -0.000126   0.403378  -0.008136  -0.044962
     8  H    0.002104   0.001313  -0.000106  -0.021676  -0.000270   0.382082
     9  H    0.002199   0.000342  -0.000118  -0.016141  -0.000290   0.375355
    10  C    0.276058  -0.035617  -0.042976  -0.080178   0.009240   0.346486
    11  H   -0.044704   0.001190  -0.000658   0.000759  -0.000384  -0.009037
    12  O   -0.040156   0.000718  -0.001941   0.001090  -0.000136  -0.018678
    13  O   -0.006026   0.000912   0.004263  -0.000174   0.000008   0.002047
    14  H    0.005081   0.000140  -0.000124   0.000042  -0.000009  -0.000364
               7          8          9         10         11         12
     1  C    0.006827   0.002104   0.002199   0.276058  -0.044704  -0.040156
     2  C   -0.029099   0.001313   0.000342  -0.035617   0.001190   0.000718
     3  H   -0.000126  -0.000106  -0.000118  -0.042976  -0.000658  -0.001941
     4  C    0.403378  -0.021676  -0.016141  -0.080178   0.000759   0.001090
     5  H   -0.008136  -0.000270  -0.000290   0.009240  -0.000384  -0.000136
     6  C   -0.044962   0.382082   0.375355   0.346486  -0.009037  -0.018678
     7  H    0.619726  -0.000868  -0.000253   0.004610  -0.000101  -0.000034
     8  H   -0.000868   0.595577  -0.024656  -0.009924  -0.000774   0.000428
     9  H   -0.000253  -0.024656   0.584973  -0.011314   0.001207   0.002848
    10  C    0.004610  -0.009924  -0.011314   4.805048   0.391928   0.266927
    11  H   -0.000101  -0.000774   0.001207   0.391928   0.629250  -0.029594
    12  O   -0.000034   0.000428   0.002848   0.266927  -0.029594   7.970206
    13  O    0.000001  -0.000036  -0.000126  -0.031447   0.001751   0.096600
    14  H   -0.000001   0.000004   0.000041  -0.002701  -0.000271  -0.018401
              13         14
     1  C   -0.006026   0.005081
     2  C    0.000912   0.000140
     3  H    0.004263  -0.000124
     4  C   -0.000174   0.000042
     5  H    0.000008  -0.000009
     6  C    0.002047  -0.000364
     7  H    0.000001  -0.000001
     8  H   -0.000036   0.000004
     9  H   -0.000126   0.000041
    10  C   -0.031447  -0.002701
    11  H    0.001751  -0.000271
    12  O    0.096600  -0.018401
    13  O    7.797167   0.309915
    14  H    0.309915   0.509758
          Atomic-Atomic Spin Densities.
               1          2          3          4          5          6
     1  C    0.778058  -0.017186   0.006026  -0.043515  -0.000764  -0.001912
     2  C   -0.017186  -0.289979  -0.000809   0.000786   0.000650  -0.000247
     3  H    0.006026  -0.000809  -0.035607  -0.000334   0.000282  -0.000081
     4  C   -0.043515   0.000786  -0.000334   0.786055  -0.000987  -0.036458
     5  H   -0.000764   0.000650   0.000282  -0.000987   0.010707   0.000059
     6  C   -0.001912  -0.000247  -0.000081  -0.036458   0.000059  -0.022151
     7  H   -0.000353  -0.001404   0.000015   0.006059   0.000316   0.000698
     8  H    0.000599   0.000193   0.000007  -0.013242   0.000002   0.010409
     9  H    0.002324   0.000315  -0.000008  -0.013816  -0.000006   0.004117
    10  C   -0.020725  -0.000728   0.000246  -0.002382   0.000098   0.007177
    11  H   -0.010394   0.000524  -0.000033   0.001412  -0.000003  -0.002634
    12  O   -0.014163   0.000351   0.000191   0.000416   0.000003   0.000803
    13  O   -0.000268   0.000006   0.000054  -0.000003  -0.000000   0.000014
    14  H    0.001175  -0.000005  -0.000053  -0.000013  -0.000000  -0.000021
               7          8          9         10         11         12
     1  C   -0.000353   0.000599   0.002324  -0.020725  -0.010394  -0.014163
     2  C   -0.001404   0.000193   0.000315  -0.000728   0.000524   0.000351
     3  H    0.000015   0.000007  -0.000008   0.000246  -0.000033   0.000191
     4  C    0.006059  -0.013242  -0.013816  -0.002382   0.001412   0.000416
     5  H    0.000316   0.000002  -0.000006   0.000098  -0.000003   0.000003
     6  C    0.000698   0.010409   0.004117   0.007177  -0.002634   0.000803
     7  H   -0.035511   0.000092  -0.000124  -0.000112  -0.000004   0.000002
     8  H    0.000092   0.030092  -0.007877   0.000449  -0.001008   0.000156
     9  H   -0.000124  -0.007877   0.043326  -0.001180   0.000604  -0.000519
    10  C   -0.000112   0.000449  -0.001180  -0.037683   0.007787   0.002586
    11  H   -0.000004  -0.001008   0.000604   0.007787   0.022972  -0.003331
    12  O    0.000002   0.000156  -0.000519   0.002586  -0.003331   0.030795
    13  O   -0.000000   0.000000  -0.000008  -0.000101  -0.000207   0.000627
    14  H   -0.000000  -0.000003   0.000019   0.000243   0.000221  -0.000623
              13         14
     1  C   -0.000268   0.001175
     2  C    0.000006  -0.000005
     3  H    0.000054  -0.000053
     4  C   -0.000003  -0.000013
     5  H   -0.000000  -0.000000
     6  C    0.000014  -0.000021
     7  H   -0.000000  -0.000000
     8  H    0.000000  -0.000003
     9  H   -0.000008   0.000019
    10  C   -0.000101   0.000243
    11  H   -0.000207   0.000221
    12  O    0.000627  -0.000623
    13  O   -0.001443  -0.000871
    14  H   -0.000871   0.001176
 Mulliken charges and spin densities:
               1          2
     1  C   -0.074559   0.678901
     2  C   -0.010774  -0.307533
     3  H    0.040948  -0.030104
     4  C   -0.094962   0.683978
     5  H    0.026505   0.010355
     6  C   -0.064390  -0.040228
     7  H    0.049040  -0.030327
     8  H    0.076800   0.019869
     9  H    0.085933   0.027166
    10  C    0.113862  -0.044324
    11  H    0.059439   0.015906
    12  O   -0.229878   0.017295
    13  O   -0.174855  -0.002199
    14  H    0.196892   0.001244
 Sum of Mulliken charges =  -0.00000   1.00000
 Mulliken charges and spin densities with hydrogens summed into heavy atoms:
               1          2
     1  C   -0.033611   0.648797
     2  C    0.015731  -0.297178
     4  C   -0.045922   0.653651
     6  C    0.098343   0.006807
    10  C    0.173300  -0.028418
    12  O   -0.229878   0.017295
    13  O    0.022036  -0.000954
 Electronic spatial extent (au):  <R**2>=            839.2259
 Charge=             -0.0000 electrons
 Dipole moment (field-independent basis, Debye):
    X=              1.2640    Y=             -1.4382    Z=             -0.3524  Tot=              1.9469
 Quadrupole moment (field-independent basis, Debye-Ang):
   XX=            -39.9629   YY=            -38.4517   ZZ=            -41.4859
   XY=              5.0628   XZ=              1.7378   YZ=              1.8867
 Traceless Quadrupole moment (field-independent basis, Debye-Ang):
   XX=              0.0040   YY=              1.5151   ZZ=             -1.5191
   XY=              5.0628   XZ=              1.7378   YZ=              1.8867
 Octapole moment (field-independent basis, Debye-Ang**2):
  XXX=            -10.1353  YYY=             -1.7111  ZZZ=             -0.9096  XYY=             -5.3108
  XXY=            -10.8447  XXZ=            -11.8838  XZZ=            -11.0778  YZZ=              2.7806
  YYZ=             -2.1568  XYZ=             -2.5523
 Hexadecapole moment (field-independent basis, Debye-Ang**3):
 XXXX=           -697.7173 YYYY=           -242.9021 ZZZZ=            -73.2307 XXXY=             29.6918
 XXXZ=             24.5016 YYYX=              2.3820 YYYZ=              2.1516 ZZZX=              6.2194
 ZZZY=              1.8667 XXYY=           -151.0395 XXZZ=           -130.8556 YYZZ=            -54.4036
 XXYZ=             12.5520 YYXZ=              2.4081 ZZXY=              4.9406
 N-N= 2.843131235111D+02 E-N=-1.372962606104D+03  KE= 3.412197480333D+02
                          Isotropic Fermi Contact Couplings
        Atom                 a.u.       MegaHertz       Gauss      10(-4) cm-1
     1  C(13)              0.11747     132.06374      47.12363      44.05172
     2  C(13)             -0.07661     -86.12028     -30.72986     -28.72663
     3  H(1)              -0.00904     -40.42090     -14.42318     -13.48296
     4  C(13)              0.11912     133.90818      47.78177      44.66696
     5  H(1)               0.00296      13.23530       4.72268       4.41482
     6  C(13)             -0.02796     -31.43780     -11.21779     -10.48652
     7  H(1)              -0.00909     -40.61745     -14.49332     -13.54852
     8  H(1)               0.01000      44.71248      15.95453      14.91448
     9  H(1)               0.01274      56.93169      20.31464      18.99037
    10  C(13)             -0.03143     -35.33859     -12.60969     -11.78769
    11  H(1)               0.00824      36.83182      13.14251      12.28577
    12  O(17)              0.02486     -15.06942      -5.37714      -5.02662
    13  O(17)              0.00190      -1.15421      -0.41185      -0.38500
    14  H(1)               0.00010       0.45117       0.16099       0.15049
 --------------------------------------------------------
       Center         ----  Spin Dipole Couplings  ----
                      3XX-RR        3YY-RR        3ZZ-RR
 --------------------------------------------------------
     1   Atom       -0.302079     -0.321298      0.623377
     2   Atom        0.106260      0.108806     -0.215066
     3   Atom       -0.021460      0.026780     -0.005320
     4   Atom       -0.303367     -0.360159      0.663526
     5   Atom        0.006597      0.001640     -0.008237
     6   Atom        0.001057      0.000799     -0.001856
     7   Atom        0.047794     -0.046708     -0.001086
     8   Atom       -0.003365      0.006801     -0.003436
     9   Atom       -0.001766      0.006299     -0.004533
    10   Atom        0.005923     -0.001171     -0.004752
    11   Atom       -0.000668      0.000522      0.000145
    12   Atom        0.013187      0.026831     -0.040018
    13   Atom        0.001615     -0.002384      0.000769
    14   Atom        0.005571     -0.002610     -0.002961
 --------------------------------------------------------
                        XY            XZ            YZ
 --------------------------------------------------------
     1   Atom       -0.023507      0.218259     -0.138960
     2   Atom        0.020597     -0.074290      0.021706
     3   Atom        0.039394      0.011447     -0.003288
     4   Atom       -0.006110      0.204533     -0.039678
     5   Atom        0.008858     -0.003047     -0.001484
     6   Atom        0.002446     -0.011093     -0.003157
     7   Atom        0.008447     -0.008325     -0.002890
     8   Atom       -0.000887     -0.000264      0.007570
     9   Atom       -0.005727      0.002619     -0.004233
    10   Atom       -0.007772     -0.003113      0.003164
    11   Atom       -0.005298     -0.003677      0.005396
    12   Atom       -0.067573      0.026641     -0.036751
    13   Atom       -0.006433      0.003831      0.001056
    14   Atom       -0.000273      0.001817     -0.000319
 --------------------------------------------------------


 ---------------------------------------------------------------------------------
              Anisotropic Spin Dipole Couplings in Principal Axis System
 ---------------------------------------------------------------------------------

       Atom             a.u.   MegaHertz   Gauss  10(-4) cm-1        Axes

              Baa    -0.3548   -47.617   -16.991   -15.883  0.8498 -0.4613 -0.2551
     1 C(13)  Bbb    -0.3370   -45.219   -16.135   -15.083  0.4811  0.8765  0.0175
              Bcc     0.6918    92.836    33.126    30.967  0.2156 -0.1376  0.9667
 
              Baa    -0.2333   -31.311   -11.173   -10.444  0.2174 -0.0748  0.9732
     2 C(13)  Bbb     0.1002    13.439     4.796     4.483 -0.5389  0.8221  0.1836
              Bcc     0.1332    17.872     6.377     5.961  0.8138  0.5644 -0.1384
 
              Baa    -0.0468   -24.960    -8.906    -8.326  0.8438 -0.4639 -0.2698
     3 H(1)   Bbb    -0.0022    -1.181    -0.421    -0.394  0.2103 -0.1767  0.9615
              Bcc     0.0490    26.140     9.327     8.719  0.4938  0.8681  0.0515
 
              Baa    -0.3619   -48.561   -17.328   -16.198 -0.1012  0.9931  0.0586
     4 C(13)  Bbb    -0.3446   -46.248   -16.502   -15.427  0.9748  0.1107 -0.1934
              Bcc     0.7065    94.808    33.830    31.625  0.1986 -0.0376  0.9794
 
              Baa    -0.0089    -4.722    -1.685    -1.575  0.2195 -0.0475  0.9745
     5 H(1)   Bbb    -0.0050    -2.650    -0.946    -0.884 -0.5712  0.8035  0.1678
              Bcc     0.0138     7.373     2.631     2.459  0.7909  0.5935 -0.1492
 
              Baa    -0.0116    -1.562    -0.557    -0.521  0.6496  0.0646  0.7576
     6 C(13)  Bbb    -0.0005    -0.068    -0.024    -0.023 -0.2886  0.9428  0.1671
              Bcc     0.0121     1.630     0.582     0.544  0.7034  0.3272 -0.6310
 
              Baa    -0.0476   -25.374    -9.054    -8.464 -0.0841  0.9954  0.0468
     7 H(1)   Bbb    -0.0024    -1.290    -0.460    -0.430  0.1687 -0.0321  0.9851
              Bcc     0.0500    26.664     9.515     8.894  0.9821  0.0907 -0.1653
 
              Baa    -0.0075    -3.982    -1.421    -1.328 -0.0450 -0.4705  0.8813
     8 H(1)   Bbb    -0.0034    -1.822    -0.650    -0.608  0.9970  0.0350  0.0696
              Bcc     0.0109     5.804     2.071     1.936 -0.0636  0.8817  0.4675
 
              Baa    -0.0062    -3.318    -1.184    -1.107 -0.3447  0.1554  0.9258
     9 H(1)   Bbb    -0.0047    -2.482    -0.886    -0.828  0.8266  0.5176  0.2208
              Bcc     0.0109     5.801     2.070     1.935 -0.4449  0.8414 -0.3069
 
              Baa    -0.0070    -0.936    -0.334    -0.312  0.2829  0.7224 -0.6310
    10 C(13)  Bbb    -0.0051    -0.679    -0.242    -0.226  0.5183  0.4384  0.7343
              Bcc     0.0120     1.615     0.576     0.539  0.8070 -0.5348 -0.2504
 
              Baa    -0.0058    -3.070    -1.095    -1.024  0.5292  0.7641 -0.3690
    11 H(1)   Bbb    -0.0039    -2.094    -0.747    -0.698  0.6655 -0.1039  0.7391
              Bcc     0.0097     5.163     1.842     1.722 -0.5264  0.6367  0.5635
 
              Baa    -0.0568     4.109     1.466     1.371  0.1684  0.5075  0.8450
    12 O(17)  Bbb    -0.0455     3.291     1.174     1.098  0.7566  0.4830 -0.4408
              Bcc     0.1023    -7.399    -2.640    -2.468 -0.6319  0.7136 -0.3026
 
              Baa    -0.0083     0.597     0.213     0.199  0.6027  0.7218 -0.3404
    13 O(17)  Bbb     0.0009    -0.064    -0.023    -0.021 -0.1122  0.4990  0.8593
              Bcc     0.0074    -0.533    -0.190    -0.178  0.7901 -0.4797  0.3817
 
              Baa    -0.0034    -1.822    -0.650    -0.608 -0.1795  0.3087  0.9341
    14 H(1)   Bbb    -0.0025    -1.355    -0.483    -0.452  0.0981  0.9504 -0.2953
              Bcc     0.0060     3.177     1.134     1.060  0.9788 -0.0386  0.2009
 

 ---------------------------------------------------------------------------------

 No NMR shielding tensors so no spin-rotation constants.
 Leave Link  601 at Tue May 20 12:10:13 2025, MaxMem=  3758096384 cpu:               0.8 elap:               0.2
 (Enter /gpfs/fs1/soft/bebop/software/custom-built/gaussian/16-c.02/g16/l9999.exe)


 THE RED LIGHT IS ALWAYS LONGER THAN THE GREEN LIGHT.

                     -- PETER'S THEORY OF RELATIVITY
 Error termination request processed by link 9999.
 Error termination via Lnk1e in /gpfs/fs1/soft/bebop/software/custom-built/gaussian/16-c.02/g16/l9999.exe at Tue May 20 12:10:13 2025.
 Job cpu time:       0 days  0 hours 58 minutes  8.5 seconds.
 Elapsed time:       0 days  0 hours 11 minutes 20.3 seconds.
 File lengths (MBytes):  RWF=     15 Int=      0 D2E=      0 Chk=      3 Scr=      1
