 Entering Gaussian System, Link 0=g16
 Input=run.inp
 Output=run.out
 Initial command:
 /gpfs/fs1/soft/bebop/software/custom-built/gaussian/16-c.02/g16/l1.exe "/scratch/Gau-2161699.inp" -scrdir="/scratch/"
 Default CPUs for threads: 0-35
 Default is to use a total of  36 processors:
                               36 via shared-memory
                                1 via Linda
 Entering Link 1 = /gpfs/fs1/soft/bebop/software/custom-built/gaussian/16-c.02/g16/l1.exe PID=   2161700.
  
 Copyright (c) 1988-2019, Gaussian, Inc.  All Rights Reserved.
  
 This is part of the Gaussian(R) 16 program.  It is based on
 the Gaussian(R) 09 system (copyright 2009, Gaussian, Inc.),
 the Gaussian(R) 03 system (copyright 2003, Gaussian, Inc.),
 the Gaussian(R) 98 system (copyright 1998, Gaussian, Inc.),
 the Gaussian(R) 94 system (copyright 1995, Gaussian, Inc.),
 the Gaussian 92(TM) system (copyright 1992, Gaussian, Inc.),
 the Gaussian 90(TM) system (copyright 1990, Gaussian, Inc.),
 the Gaussian 88(TM) system (copyright 1988, Gaussian, Inc.),
 the Gaussian 86(TM) system (copyright 1986, Carnegie Mellon
 University), and the Gaussian 82(TM) system (copyright 1983,
 Carnegie Mellon University). Gaussian is a federally registered
 trademark of Gaussian, Inc.
  
 This software contains proprietary and confidential information,
 including trade secrets, belonging to Gaussian, Inc.
  
 This software is provided under written license and may be
 used, copied, transmitted, or stored only in accord with that
 written license.
  
 The following legend is applicable only to US Government
 contracts under FAR:
  
                    RESTRICTED RIGHTS LEGEND
  
 Use, reproduction and disclosure by the US Government is
 subject to restrictions as set forth in subparagraphs (a)
 and (c) of the Commercial Computer Software - Restricted
 Rights clause in FAR 52.227-19.
  
 Gaussian, Inc.
 340 Quinnipiac St., Bldg. 40, Wallingford CT 06492
  
  
 ---------------------------------------------------------------
 Warning -- This program may not be used in any manner that
 competes with the business of Gaussian, Inc. or will provide
 assistance to any competitor of Gaussian, Inc.  The licensee
 of this program is prohibited from giving any competitor of
 Gaussian, Inc. access to this program.  By using this program,
 the user acknowledges that Gaussian, Inc. is engaged in the
 business of creating and licensing software in the field of
 computational chemistry and represents and warrants to the
 licensee that it is not a competitor of Gaussian, Inc. and that
 it will not use this program in any manner prohibited above.
 ---------------------------------------------------------------
  

 Cite this work as:
 Gaussian 16, Revision C.01,
 M. J. Frisch, G. W. Trucks, H. B. Schlegel, G. E. Scuseria, 
 M. A. Robb, J. R. Cheeseman, G. Scalmani, V. Barone, 
 G. A. Petersson, H. Nakatsuji, X. Li, M. Caricato, A. V. Marenich, 
 J. Bloino, B. G. Janesko, R. Gomperts, B. Mennucci, H. P. Hratchian, 
 J. V. Ortiz, A. F. Izmaylov, J. L. Sonnenberg, D. Williams-Young, 
 F. Ding, F. Lipparini, F. Egidi, J. Goings, B. Peng, A. Petrone, 
 T. Henderson, D. Ranasinghe, V. G. Zakrzewski, J. Gao, N. Rega, 
 G. Zheng, W. Liang, M. Hada, M. Ehara, K. Toyota, R. Fukuda, 
 J. Hasegawa, M. Ishida, T. Nakajima, Y. Honda, O. Kitao, H. Nakai, 
 T. Vreven, K. Throssell, J. A. Montgomery, Jr., J. E. Peralta, 
 F. Ogliaro, M. J. Bearpark, J. J. Heyd, E. N. Brothers, K. N. Kudin, 
 V. N. Staroverov, T. A. Keith, R. Kobayashi, J. Normand, 
 K. Raghavachari, A. P. Rendell, J. C. Burant, S. S. Iyengar, 
 J. Tomasi, M. Cossi, J. M. Millam, M. Klene, C. Adamo, R. Cammi, 
 J. W. Ochterski, R. L. Martin, K. Morokuma, O. Farkas, 
 J. B. Foresman, and D. J. Fox, Gaussian, Inc., Wallingford CT, 2019.
 
 ******************************************
 Gaussian 16:  ES64L-G16RevC.01  3-Jul-2019
                20-May-2025 
 ******************************************
 %mem=28GB
 %NProcShared=6
 Will use up to    6 processors via shared memory.
 -------------------------------------------------------
 #P wb97xd/def2svp # SCF=(xqc) # POpt=() # int=ultrafine
 -------------------------------------------------------
 1/10=7,26=4,38=1/1,3;
 2/12=2,17=6,18=5,29=3,40=1/2;
 3/5=43,7=101,11=2,25=1,30=1,71=1,74=-58,75=-5/1,2,3;
 4//1;
 5/5=2,8=3,13=1,38=5/2,8;
 6/7=2,8=2,9=2,10=2,28=1/1;
 7/29=1/1,2,3,16;
 1/10=7,26=4/3(2);
 2/29=3/2;
 99//99;
 2/29=3/2;
 3/5=43,7=101,11=2,25=1,30=1,71=1,74=-58,75=-5/1,2,3;
 4/5=5,16=3,69=1/1;
 5/5=2,8=3,13=1,38=5/2,8;
 7//1,2,3,16;
 1/26=4/3(-5);
 2/29=3/2;
 6/7=2,8=2,9=2,10=2,19=2,28=1/1;
 99/9=1/99;
 Leave Link    1 at Tue May 20 11:19:36 2025, MaxMem=  3758096384 cpu:               0.5 elap:               0.0
 (Enter /gpfs/fs1/soft/bebop/software/custom-built/gaussian/16-c.02/g16/l101.exe)
 --------
 comment:
 --------
 Symbolic Z-matrix:
 Charge =  0 Multiplicity = 2
 C
 C                    1    R1
 H                    1    R2       2    A2
 C                    2    R3       1    A3       3    D3       0
 H                    2    R4       1    A4       4    D4       0
 C                    4    R5       2    A5       1    D5       0
 H                    4    R6       2    A6       6    D6       0
 H                    6    R7       4    A7       2    D7       0
 H                    6    R8       4    A8       8    D8       0
 C                    6    R9       4    A9       8    D9       0
 H                    10   R10      6    A10      4    D10      0
 O                    10   R11      6    A11      11   D11      0
 O                    12   R12      10   A12      1    D12      0
 H                    13   R13      12   A13      10   D13      0
       Variables:
  R1                    1.4292                   
  R2                    1.0935                   
  R3                    1.3926                   
  R4                    1.0902                   
  R5                    1.3936                   
  R6                    1.0949                   
  R7                    1.0874                   
  R8                    1.0952                   
  R10                   1.0965                   
  R11                   1.3699                   
  R12                   1.4313                   
  R13                   0.967                    
  A2                  123.4075                   
  A3                  110.8488                   
  A4                  124.8306                   
  A5                  119.1007                   
  A6                  121.3139                   
  A7                  124.142                    
  A8                  118.2106                   
  A9                   89.2766                   
  A10                 127.7952                   
  A11                  73.7366                   
  A12                 106.2417                   
  A13                  99.5654                   
  D3                  222.003                    
  D4                  176.8271                   
  D5                    9.1736                   
  D6                  183.2824                   
  D7                   34.1281                   
  D8                  158.4502                   
  D9                  301.8354                   
  D10                 158.368                    
  D11                 103.2428                   
  D12                 132.5087                   
  D13                 138.2094                   
       Constants:
  R9                    2.2                      
 
 ITRead=  0  0  0  0  0  0  0  0  0  0  0  0  0  0
 MicOpt= -1 -1 -1 -1 -1 -1 -1 -1 -1 -1 -1 -1 -1 -1
 NAtoms=     14 NQM=       14 NQMF=       0 NMMI=      0 NMMIF=      0
                NMic=       0 NMicF=      0.
                    Isotopes and Nuclear Properties:
 (Nuclear quadrupole moments (NQMom) in fm**2, nuclear magnetic moments (NMagM)
  in nuclear magnetons)

  Atom         1           2           3           4           5           6           7           8           9          10
 IAtWgt=          12          12           1          12           1          12           1           1           1          12
 AtmWgt=  12.0000000  12.0000000   1.0078250  12.0000000   1.0078250  12.0000000   1.0078250   1.0078250   1.0078250  12.0000000
 NucSpn=           0           0           1           0           1           0           1           1           1           0
 AtZEff=  -0.0000000  -0.0000000  -0.0000000  -0.0000000  -0.0000000  -0.0000000  -0.0000000  -0.0000000  -0.0000000  -0.0000000
 NQMom=    0.0000000   0.0000000   0.0000000   0.0000000   0.0000000   0.0000000   0.0000000   0.0000000   0.0000000   0.0000000
 NMagM=    0.0000000   0.0000000   2.7928460   0.0000000   2.7928460   0.0000000   2.7928460   2.7928460   2.7928460   0.0000000
 AtZNuc=   6.0000000   6.0000000   1.0000000   6.0000000   1.0000000   6.0000000   1.0000000   1.0000000   1.0000000   6.0000000

  Atom        11          12          13          14
 IAtWgt=           1          16          16           1
 AtmWgt=   1.0078250  15.9949146  15.9949146   1.0078250
 NucSpn=           1           0           0           1
 AtZEff=  -0.0000000  -0.0000000  -0.0000000  -0.0000000
 NQMom=    0.0000000   0.0000000   0.0000000   0.0000000
 NMagM=    2.7928460   0.0000000   0.0000000   2.7928460
 AtZNuc=   1.0000000   8.0000000   8.0000000   1.0000000
 Leave Link  101 at Tue May 20 11:19:36 2025, MaxMem=  3758096384 cpu:               0.6 elap:               0.1
 (Enter /gpfs/fs1/soft/bebop/software/custom-built/gaussian/16-c.02/g16/l103.exe)

 GradGradGradGradGradGradGradGradGradGradGradGradGradGradGradGradGradGrad
 Berny optimization.
 Initialization pass.
                       ----------------------------
                       !    Initial Parameters    !
                       ! (Angstroms and Degrees)  !
 ----------------------                            ----------------------
 !      Name          Value   Derivative information (Atomic Units)     !
 ------------------------------------------------------------------------
 !       R1          1.4292   estimate D2E/DX2                          !
 !       R2          1.0935   estimate D2E/DX2                          !
 !       R3          1.3926   estimate D2E/DX2                          !
 !       R4          1.0902   estimate D2E/DX2                          !
 !       R5          1.3936   estimate D2E/DX2                          !
 !       R6          1.0949   estimate D2E/DX2                          !
 !       R7          1.0874   estimate D2E/DX2                          !
 !       R8          1.0952   estimate D2E/DX2                          !
 !       R10         1.0965   estimate D2E/DX2                          !
 !       R11         1.3699   estimate D2E/DX2                          !
 !       R12         1.4313   estimate D2E/DX2                          !
 !       R13         0.967    estimate D2E/DX2                          !
 !       A2        123.4075   estimate D2E/DX2                          !
 !       A3        110.8488   estimate D2E/DX2                          !
 !       A4        124.8306   estimate D2E/DX2                          !
 !       A5        119.1007   estimate D2E/DX2                          !
 !       A6        121.3139   estimate D2E/DX2                          !
 !       A7        124.142    estimate D2E/DX2                          !
 !       A8        118.2106   estimate D2E/DX2                          !
 !       A9         89.2766   estimate D2E/DX2                          !
 !       A10       127.7952   estimate D2E/DX2                          !
 !       A11        73.7366   estimate D2E/DX2                          !
 !       A12       106.2417   estimate D2E/DX2                          !
 !       A13        99.5654   estimate D2E/DX2                          !
 !       D3        222.003    estimate D2E/DX2                          !
 !       D4        176.8271   estimate D2E/DX2                          !
 !       D5          9.1736   estimate D2E/DX2                          !
 !       D6        183.2824   estimate D2E/DX2                          !
 !       D7         34.1281   estimate D2E/DX2                          !
 !       D8        158.4502   estimate D2E/DX2                          !
 !       D9        301.8354   estimate D2E/DX2                          !
 !       D10       158.368    estimate D2E/DX2                          !
 !       D11       103.2428   estimate D2E/DX2                          !
 !       D12       132.5087   estimate D2E/DX2                          !
 !       D13       138.2094   estimate D2E/DX2                          !
 !       R9          2.2      Frozen                                    !
 ------------------------------------------------------------------------
 Trust Radius=3.00D-01 FncErr=1.00D-07 GrdErr=1.00D-06 EigMax=2.50D+02 EigMin=1.00D-04
 Number of steps in this run=     46 maximum allowed number of steps=    100.
 GradGradGradGradGradGradGradGradGradGradGradGradGradGradGradGradGradGrad

 Leave Link  103 at Tue May 20 11:19:36 2025, MaxMem=  3758096384 cpu:               0.1 elap:               0.0
 (Enter /gpfs/fs1/soft/bebop/software/custom-built/gaussian/16-c.02/g16/l202.exe)
 ---------------------------------------------------------------------------------------------------
                            Z-MATRIX (ANGSTROMS AND DEGREES)
   CD    Cent   Atom    N1       Length/X        N2       Alpha/Y        N3        Beta/Z          J
 ---------------------------------------------------------------------------------------------------
      1      1  C 
      2      2  C        1   1.429200(     1)
      3      3  H        1   1.093500(     2)      2  123.407(    14)
      4      4  C        2   1.392600(     3)      1  110.849(    15)      3  222.003(    26)      0
      5      5  H        2   1.090200(     4)      1  124.831(    16)      4  176.827(    27)      0
      6      6  C        4   1.393600(     5)      2  119.101(    17)      1    9.174(    28)      0
      7      7  H        4   1.094900(     6)      2  121.314(    18)      6  183.282(    29)      0
      8      8  H        6   1.087400(     7)      4  124.142(    19)      2   34.128(    30)      0
      9      9  H        6   1.095200(     8)      4  118.211(    20)      8  158.450(    31)      0
     10     10  C        6   2.200000(     9)      4   89.277(    21)      8  301.835(    32)      0
     11     11  H       10   1.096500(    10)      6  127.795(    22)      4  158.368(    33)      0
     12     12  O       10   1.369900(    11)      6   73.737(    23)     11  103.243(    34)      0
     13     13  O       12   1.431300(    12)     10  106.242(    24)      1  132.509(    35)      0
     14     14  H       13   0.967000(    13)     12   99.565(    25)     10  138.209(    36)      0
 ---------------------------------------------------------------------------------------------------
                         Z-Matrix orientation:                         
 ---------------------------------------------------------------------
 Center     Atomic      Atomic             Coordinates (Angstroms)
 Number     Number       Type             X           Y           Z
 ---------------------------------------------------------------------
      1          6           0        0.000000    0.000000    0.000000
      2          6           0        0.000000    0.000000    1.429200
      3          1           0        0.912827    0.000000   -0.602070
      4          6           0       -0.967095   -0.870868    1.924831
      5          1           0        0.697123    0.561104    2.051870
      6          6           0       -1.625797   -1.725269    1.042656
      7          1           0       -1.255714   -0.859264    2.980942
      8          1           0       -1.163299   -2.171723    0.165608
      9          1           0       -2.519033   -2.249180    1.399180
     10          6           0       -1.174167   -0.332635   -0.599477
     11          1           0       -1.140673   -0.548880   -1.673921
     12          8           0       -2.459914   -0.063474   -0.210848
     13          8           0       -3.132750    0.435568   -1.371395
     14          1           0       -3.976862   -0.027091   -1.279138
 ---------------------------------------------------------------------
                    Distance matrix (angstroms):
                    1          2          3          4          5
     1  C    0.000000
     2  C    1.429200   0.000000
     3  H    1.093500   2.226951   0.000000
     4  C    2.323501   1.392600   3.267682   0.000000
     5  H    2.238524   1.090200   2.721170   2.199160   0.000000
     6  C    2.589768   2.401913   3.482282   1.393600   3.412034
     7  H    3.346814   2.173259   4.275381   1.094900   2.587314
     8  H    2.469225   2.768811   3.100970   2.196721   3.806245
     9  H    3.655413   3.377164   4.565247   2.141159   4.320574
    10  C    1.359664   2.367456   2.113338   2.589344   3.366027
    11  H    2.098670   3.351382   2.380545   3.617294   4.300125
    12  O    2.469749   2.957188   3.395948   2.727914   3.934065
    13  O    3.447400   4.224592   4.141048   4.154749   5.138330
    14  H    4.177602   4.811576   4.936418   4.476167   5.769551
                    6          7          8          9         10
     6  C    0.000000
     7  H    2.154966   0.000000
     8  H    1.087400   3.107603   0.000000
     9  H    1.095200   2.455567   1.834588   0.000000
    10  C    2.200000   3.619860   1.991913   3.078383   0.000000
    11  H    2.999837   4.666617   2.453161   3.772909   1.096500
    12  O    2.242451   3.502985   2.503526   2.715326   1.369900
    13  O    3.573201   4.913521   3.610967   3.906482   2.240992
    14  H    3.715110   5.123030   3.821371   3.773106   2.900069
                   11         12         13         14
    11  H    0.000000
    12  O    2.028940   0.000000
    13  O    2.242550   1.431300   0.000000
    14  H    2.910685   1.855721   0.967000   0.000000
 Stoichiometry    C5H7O2(2)
 Framework group  C1[X(C5H7O2)]
 Deg. of freedom    36
 Full point group                 C1      NOp   1
 Largest Abelian subgroup         C1      NOp   1
 Largest concise Abelian subgroup C1      NOp   1
                         Standard orientation:                         
 ---------------------------------------------------------------------
 Center     Atomic      Atomic             Coordinates (Angstroms)
 Number     Number       Type             X           Y           Z
 ---------------------------------------------------------------------
      1          6           0        0.704973   -1.300729    0.241986
      2          6           0        1.722947   -0.611648   -0.487061
      3          1           0        0.888549   -2.212904    0.816423
      4          6           0        1.606837    0.765866   -0.318804
      5          1           0        2.518377   -1.095429   -1.054319
      6          6           0        0.712863    1.259905    0.629277
      7          1           0        2.163045    1.465302   -0.951440
      8          1           0        0.490575    0.767863    1.573163
      9          1           0        0.475636    2.328921    0.609530
     10          6           0       -0.441126   -0.606609    0.472945
     11          1           0       -1.139328   -1.028354    1.205718
     12          8           0       -1.082456    0.308462   -0.319498
     13          8           0       -2.463448   -0.067578   -0.328117
     14          1           0       -2.868585    0.806818   -0.248209
 ---------------------------------------------------------------------
 Rotational constants (GHZ):           5.2908252           2.0940385           1.7321243
 Leave Link  202 at Tue May 20 11:19:36 2025, MaxMem=  3758096384 cpu:               0.1 elap:               0.0
 (Enter /gpfs/fs1/soft/bebop/software/custom-built/gaussian/16-c.02/g16/l301.exe)
 Standard basis: def2SVP (5D, 7F)
 Ernie: Thresh=  0.10000D-02 Tol=  0.10000D-05 Strict=F.
 There are   140 symmetry adapted cartesian basis functions of A   symmetry.
 There are   133 symmetry adapted basis functions of A   symmetry.
   133 basis functions,   224 primitive gaussians,   140 cartesian basis functions
    27 alpha electrons       26 beta electrons
       nuclear repulsion energy       297.6025573211 Hartrees.
 IExCor= 4639 DFT=T Ex+Corr=wB97XD ExCW=0 ScaHFX=  1.000000
 ScaDFX=  1.000000  1.000000  1.000000  1.000000 ScalE2=  1.000000  1.000000
 IRadAn=      5 IRanWt=     -1 IRanGd=            0 ICorTp=0 IEmpDi=121
 HFx  wShort=  0.000000 wLong=  0.200000 cFull=  0.222036 cShort=  0.000000 cLong=  0.777964
 DFx  wShort=  0.000000 wLong=  0.200000 cFull=  0.000000 cShort=  0.000000 cLong=  1.000000
 NAtoms=   14 NActive=   14 NUniq=   14 SFac= 1.00D+00 NAtFMM=   60 NAOKFM=F Big=F
 Integral buffers will be    131072 words long.
 Raffenetti 2 integral format.
 Two-electron integral symmetry is turned on.
 R6Disp:  Grimme-D2 Dispersion energy=       -0.0057659376 Hartrees.
 Nuclear repulsion after empirical dispersion term =      297.5967913835 Hartrees.
 Leave Link  301 at Tue May 20 11:19:36 2025, MaxMem=  3758096384 cpu:               0.3 elap:               0.1
 (Enter /gpfs/fs1/soft/bebop/software/custom-built/gaussian/16-c.02/g16/l302.exe)
 NPDir=0 NMtPBC=     1 NCelOv=     1 NCel=       1 NClECP=     1 NCelD=      1
         NCelK=      1 NCelE2=     1 NClLst=     1 CellRange=     0.0.
 One-electron integrals computed using PRISM.
 One-electron integral symmetry used in STVInt
   1 Symmetry operations used in ECPInt.
 ECPInt:  NShTT=    2016 NPrTT=    7252 LenC2=    2009 LenP2D=    5984.
 LDataN:  DoStor=T MaxTD1= 4 Len=   56
 NBasis=   133 RedAO= T EigKep=  1.02D-03  NBF=   133
 NBsUse=   133 1.00D-06 EigRej= -1.00D+00 NBFU=   133
 Precomputing XC quadrature grid using
 IXCGrd= 4 IRadAn=           5 IRanWt=          -1 IRanGd=           0 AccXCQ= 0.00D+00.
 Generated NRdTot=       0 NPtTot=           0 NUsed=           0 NTot=          32
 NSgBfM=   140   140   140   140   140 MxSgAt=    14 MxSgA2=    14.
 Leave Link  302 at Tue May 20 11:19:37 2025, MaxMem=  3758096384 cpu:               0.8 elap:               0.2
 (Enter /gpfs/fs1/soft/bebop/software/custom-built/gaussian/16-c.02/g16/l303.exe)
 DipDrv:  MaxL=1.
 Leave Link  303 at Tue May 20 11:19:37 2025, MaxMem=  3758096384 cpu:               0.1 elap:               0.0
 (Enter /gpfs/fs1/soft/bebop/software/custom-built/gaussian/16-c.02/g16/l401.exe)
 ExpMin= 1.22D-01 ExpMax= 2.27D+03 ExpMxC= 3.41D+02 IAcc=3 IRadAn=         5 AccDes= 0.00D+00
 Harris functional with IExCor= 4639 and IRadAn=       5 diagonalized for initial guess.
 HarFok:  IExCor= 4639 AccDes= 0.00D+00 IRadAn=         5 IDoV= 1 UseB2=F ITyADJ=14
 ICtDFT=  3500011 ScaDFX=  1.000000  1.000000  1.000000  1.000000
 FoFCou: FMM=F IPFlag=           0 FMFlag=      100000 FMFlg1=           0
         NFxFlg=           0 DoJE=T BraDBF=F KetDBF=T FulRan=T
         wScrn=  0.000000 ICntrl=       500 IOpCl=  0 I1Cent=   200000004 NGrid=           0
         NMat0=    1 NMatS0=      1 NMatT0=    0 NMatD0=    1 NMtDS0=    0 NMtDT0=    0
 Petite list used in FoFCou.
 Harris En= -330.310292036354    
 JPrj=0 DoOrth=F DoCkMO=F.
 Initial guess <Sx>= 0.0000 <Sy>= 0.0000 <Sz>= 0.5000 <S**2>= 0.7500 S= 0.5000
 Leave Link  401 at Tue May 20 11:19:37 2025, MaxMem=  3758096384 cpu:               2.5 elap:               0.4
 (Enter /gpfs/fs1/soft/bebop/software/custom-built/gaussian/16-c.02/g16/l502.exe)
 Keep R1 and R2 ints in memory in canonical form, NReq=165843629.
 FoFCou: FMM=F IPFlag=           0 FMFlag=           0 FMFlg1=           0
         NFxFlg=           0 DoJE=F BraDBF=F KetDBF=F FulRan=T
         wScrn=  0.000000 ICntrl=       600 IOpCl=  0 I1Cent=           0 NGrid=           0
         NMat0=    1 NMatS0=   8911 NMatT0=    0 NMatD0=    1 NMtDS0=    0 NMtDT0=    0
 Symmetry not used in FoFCou.
 Two-electron integral symmetry not used.
 UHF open shell SCF:
 Using DIIS extrapolation, IDIIS=  1040.
 NGot=  3758096384 LenX=  3599224750 LenY=  3599204709
 Requested convergence on RMS density matrix=1.00D-08 within  32 cycles.
 Requested convergence on MAX density matrix=1.00D-06.
 Requested convergence on             energy=1.00D-06.
 No special actions if energy rises.
 Integral accuracy reduced to 1.0D-05 until final iterations.

 Cycle   1  Pass 0  IDiag  1:
 E= -344.351865271715    
 DIIS: error= 2.61D-02 at cycle   1 NSaved=   1.
 NSaved= 1 IEnMin= 1 EnMin= -344.351865271715     IErMin= 1 ErrMin= 2.61D-02
 ErrMax= 2.61D-02  0.00D+00 EMaxC= 1.00D-01 BMatC= 1.28D+00 BMatP= 1.28D+00
 IDIUse=3 WtCom= 7.39D-01 WtEn= 2.61D-01
 Coeff-Com:  0.100D+01
 Coeff-En:   0.100D+01
 Coeff:      0.100D+01
 Gap=     0.186 Goal=   None    Shift=    0.000
 Gap=     0.516 Goal=   None    Shift=    0.000
 GapD=    0.186 DampG=1.000 DampE=0.500 DampFc=0.5000 IDamp=-1.
 Damping current iteration by 5.00D-01
 RMSDP=7.98D-03 MaxDP=2.07D-01              OVMax= 3.74D-01

 Cycle   2  Pass 0  IDiag  1:
 E= -344.423984765844     Delta-E=       -0.072119494129 Rises=F Damp=T
 DIIS: error= 1.31D-02 at cycle   2 NSaved=   2.
 NSaved= 2 IEnMin= 2 EnMin= -344.423984765844     IErMin= 2 ErrMin= 1.31D-02
 ErrMax= 1.31D-02  0.00D+00 EMaxC= 1.00D-01 BMatC= 1.52D-01 BMatP= 1.28D+00
 IDIUse=3 WtCom= 8.69D-01 WtEn= 1.31D-01
 Coeff-Com:  0.551D-01 0.945D+00
 Coeff-En:   0.242D+00 0.758D+00
 Coeff:      0.796D-01 0.920D+00
 Gap=     0.273 Goal=   None    Shift=    0.000
 Gap=     0.485 Goal=   None    Shift=    0.000
 RMSDP=2.24D-03 MaxDP=4.72D-02 DE=-7.21D-02 OVMax= 3.02D-01

 Cycle   3  Pass 0  IDiag  1:
 E= -344.558165439038     Delta-E=       -0.134180673194 Rises=F Damp=F
 DIIS: error= 3.53D-03 at cycle   3 NSaved=   3.
 NSaved= 3 IEnMin= 3 EnMin= -344.558165439038     IErMin= 3 ErrMin= 3.53D-03
 ErrMax= 3.53D-03  0.00D+00 EMaxC= 1.00D-01 BMatC= 2.07D-02 BMatP= 1.52D-01
 IDIUse=3 WtCom= 9.65D-01 WtEn= 3.53D-02
 Coeff-Com: -0.965D-01 0.188D+00 0.908D+00
 Coeff-En:   0.000D+00 0.000D+00 0.100D+01
 Coeff:     -0.931D-01 0.182D+00 0.912D+00
 Gap=     0.262 Goal=   None    Shift=    0.000
 Gap=     0.319 Goal=   None    Shift=    0.000
 RMSDP=7.97D-04 MaxDP=1.55D-02 DE=-1.34D-01 OVMax= 5.10D-02

 Cycle   4  Pass 0  IDiag  1:
 E= -344.564863094929     Delta-E=       -0.006697655891 Rises=F Damp=F
 DIIS: error= 1.42D-03 at cycle   4 NSaved=   4.
 NSaved= 4 IEnMin= 4 EnMin= -344.564863094929     IErMin= 4 ErrMin= 1.42D-03
 ErrMax= 1.42D-03  0.00D+00 EMaxC= 1.00D-01 BMatC= 2.92D-03 BMatP= 2.07D-02
 IDIUse=3 WtCom= 9.86D-01 WtEn= 1.42D-02
 Coeff-Com: -0.436D-01 0.651D-01 0.425D+00 0.554D+00
 Coeff-En:   0.000D+00 0.000D+00 0.000D+00 0.100D+01
 Coeff:     -0.430D-01 0.641D-01 0.418D+00 0.560D+00
 Gap=     0.266 Goal=   None    Shift=    0.000
 Gap=     0.320 Goal=   None    Shift=    0.000
 RMSDP=2.75D-04 MaxDP=4.59D-03 DE=-6.70D-03 OVMax= 1.42D-02

 Cycle   5  Pass 0  IDiag  1:
 E= -344.565944104035     Delta-E=       -0.001081009106 Rises=F Damp=F
 DIIS: error= 8.64D-04 at cycle   5 NSaved=   5.
 NSaved= 5 IEnMin= 5 EnMin= -344.565944104035     IErMin= 5 ErrMin= 8.64D-04
 ErrMax= 8.64D-04  0.00D+00 EMaxC= 1.00D-01 BMatC= 5.20D-04 BMatP= 2.92D-03
 IDIUse=3 WtCom= 9.91D-01 WtEn= 8.64D-03
 Coeff-Com:  0.179D-01-0.423D-01-0.178D+00 0.120D+00 0.108D+01
 Coeff-En:   0.000D+00 0.000D+00 0.000D+00 0.000D+00 0.100D+01
 Coeff:      0.178D-01-0.420D-01-0.176D+00 0.119D+00 0.108D+01
 Gap=     0.273 Goal=   None    Shift=    0.000
 Gap=     0.323 Goal=   None    Shift=    0.000
 RMSDP=3.51D-04 MaxDP=6.59D-03 DE=-1.08D-03 OVMax= 2.60D-02

 Cycle   6  Pass 0  IDiag  1:
 E= -344.566695725215     Delta-E=       -0.000751621180 Rises=F Damp=F
 DIIS: error= 4.81D-04 at cycle   6 NSaved=   6.
 NSaved= 6 IEnMin= 6 EnMin= -344.566695725215     IErMin= 6 ErrMin= 4.81D-04
 ErrMax= 4.81D-04  0.00D+00 EMaxC= 1.00D-01 BMatC= 1.59D-04 BMatP= 5.20D-04
 IDIUse=3 WtCom= 9.95D-01 WtEn= 4.81D-03
 Coeff-Com:  0.155D-01-0.271D-01-0.128D+00-0.130D+00 0.245D+00 0.102D+01
 Coeff-En:   0.000D+00 0.000D+00 0.000D+00 0.000D+00 0.000D+00 0.100D+01
 Coeff:      0.155D-01-0.270D-01-0.127D+00-0.129D+00 0.244D+00 0.102D+01
 Gap=     0.275 Goal=   None    Shift=    0.000
 Gap=     0.326 Goal=   None    Shift=    0.000
 RMSDP=2.12D-04 MaxDP=3.04D-03 DE=-7.52D-04 OVMax= 1.50D-02

 Cycle   7  Pass 0  IDiag  1:
 E= -344.566920790352     Delta-E=       -0.000225065137 Rises=F Damp=F
 DIIS: error= 2.87D-04 at cycle   7 NSaved=   7.
 NSaved= 7 IEnMin= 7 EnMin= -344.566920790352     IErMin= 7 ErrMin= 2.87D-04
 ErrMax= 2.87D-04  0.00D+00 EMaxC= 1.00D-01 BMatC= 5.60D-05 BMatP= 1.59D-04
 IDIUse=3 WtCom= 9.97D-01 WtEn= 2.87D-03
 Coeff-Com: -0.861D-03 0.424D-02 0.231D-01-0.605D-01-0.192D+00 0.363D+00
 Coeff-Com:  0.863D+00
 Coeff-En:   0.000D+00 0.000D+00 0.000D+00 0.000D+00 0.000D+00 0.000D+00
 Coeff-En:   0.100D+01
 Coeff:     -0.858D-03 0.423D-02 0.231D-01-0.603D-01-0.192D+00 0.362D+00
 Coeff:      0.863D+00
 Gap=     0.275 Goal=   None    Shift=    0.000
 Gap=     0.326 Goal=   None    Shift=    0.000
 RMSDP=9.26D-05 MaxDP=1.67D-03 DE=-2.25D-04 OVMax= 6.70D-03

 Cycle   8  Pass 0  IDiag  1:
 E= -344.566982939569     Delta-E=       -0.000062149218 Rises=F Damp=F
 DIIS: error= 1.65D-04 at cycle   8 NSaved=   8.
 NSaved= 8 IEnMin= 8 EnMin= -344.566982939569     IErMin= 8 ErrMin= 1.65D-04
 ErrMax= 1.65D-04  0.00D+00 EMaxC= 1.00D-01 BMatC= 1.68D-05 BMatP= 5.60D-05
 IDIUse=3 WtCom= 9.98D-01 WtEn= 1.65D-03
 Coeff-Com: -0.685D-02 0.129D-01 0.585D-01 0.245D-01-0.165D+00-0.270D+00
 Coeff-Com:  0.249D+00 0.110D+01
 Coeff-En:   0.000D+00 0.000D+00 0.000D+00 0.000D+00 0.000D+00 0.000D+00
 Coeff-En:   0.000D+00 0.100D+01
 Coeff:     -0.684D-02 0.128D-01 0.584D-01 0.244D-01-0.165D+00-0.270D+00
 Coeff:      0.249D+00 0.110D+01
 Gap=     0.276 Goal=   None    Shift=    0.000
 Gap=     0.326 Goal=   None    Shift=    0.000
 RMSDP=8.60D-05 MaxDP=1.42D-03 DE=-6.21D-05 OVMax= 6.14D-03

 Cycle   9  Pass 0  IDiag  1:
 E= -344.567018335340     Delta-E=       -0.000035395771 Rises=F Damp=F
 DIIS: error= 8.36D-05 at cycle   9 NSaved=   9.
 NSaved= 9 IEnMin= 9 EnMin= -344.567018335340     IErMin= 9 ErrMin= 8.36D-05
 ErrMax= 8.36D-05  0.00D+00 EMaxC= 1.00D-01 BMatC= 5.53D-06 BMatP= 1.68D-05
 IDIUse=1 WtCom= 1.00D+00 WtEn= 0.00D+00
 Coeff-Com: -0.132D-02 0.222D-02 0.241D-02 0.809D-02 0.108D-01-0.130D+00
 Coeff-Com: -0.132D+00 0.231D+00 0.101D+01
 Coeff:     -0.132D-02 0.222D-02 0.241D-02 0.809D-02 0.108D-01-0.130D+00
 Coeff:     -0.132D+00 0.231D+00 0.101D+01
 Gap=     0.276 Goal=   None    Shift=    0.000
 Gap=     0.327 Goal=   None    Shift=    0.000
 RMSDP=4.59D-05 MaxDP=8.27D-04 DE=-3.54D-05 OVMax= 3.66D-03

 Failed to achieve initial convergence to 1.0D-08 in 10 cycles.
 Switch to full accuracy anyway.
 Cycle  10  Pass 1  IDiag  1:
 E= -344.566997379170     Delta-E=        0.000020956169 Rises=F Damp=F
 DIIS: error= 5.37D-05 at cycle   1 NSaved=   1.
 NSaved= 1 IEnMin= 1 EnMin= -344.566997379170     IErMin= 1 ErrMin= 5.37D-05
 ErrMax= 5.37D-05  0.00D+00 EMaxC= 1.00D-01 BMatC= 2.70D-06 BMatP= 2.70D-06
 IDIUse=1 WtCom= 1.00D+00 WtEn= 0.00D+00
 Coeff-Com:  0.100D+01
 Coeff:      0.100D+01
 Gap=     0.276 Goal=   None    Shift=    0.000
 Gap=     0.327 Goal=   None    Shift=    0.000
 RMSDP=4.59D-05 MaxDP=8.27D-04 DE= 2.10D-05 OVMax= 1.36D-03

 Cycle  11  Pass 1  IDiag  1:
 E= -344.567001168138     Delta-E=       -0.000003788967 Rises=F Damp=F
 DIIS: error= 4.69D-05 at cycle   2 NSaved=   2.
 NSaved= 2 IEnMin= 2 EnMin= -344.567001168138     IErMin= 2 ErrMin= 4.69D-05
 ErrMax= 4.69D-05  0.00D+00 EMaxC= 1.00D-01 BMatC= 1.50D-06 BMatP= 2.70D-06
 IDIUse=1 WtCom= 1.00D+00 WtEn= 0.00D+00
 Coeff-Com:  0.145D+00 0.855D+00
 Coeff:      0.145D+00 0.855D+00
 Gap=     0.276 Goal=   None    Shift=    0.000
 Gap=     0.327 Goal=   None    Shift=    0.000
 RMSDP=1.29D-05 MaxDP=2.77D-04 DE=-3.79D-06 OVMax= 1.04D-03

 Cycle  12  Pass 1  IDiag  1:
 E= -344.567003247950     Delta-E=       -0.000002079812 Rises=F Damp=F
 DIIS: error= 3.65D-05 at cycle   3 NSaved=   3.
 NSaved= 3 IEnMin= 3 EnMin= -344.567003247950     IErMin= 3 ErrMin= 3.65D-05
 ErrMax= 3.65D-05  0.00D+00 EMaxC= 1.00D-01 BMatC= 1.01D-06 BMatP= 1.50D-06
 IDIUse=1 WtCom= 1.00D+00 WtEn= 0.00D+00
 Coeff-Com: -0.599D+00 0.273D+00 0.133D+01
 Coeff:     -0.599D+00 0.273D+00 0.133D+01
 Gap=     0.276 Goal=   None    Shift=    0.000
 Gap=     0.327 Goal=   None    Shift=    0.000
 RMSDP=2.42D-05 MaxDP=5.27D-04 DE=-2.08D-06 OVMax= 1.91D-03

 Cycle  13  Pass 1  IDiag  1:
 E= -344.567006231184     Delta-E=       -0.000002983234 Rises=F Damp=F
 DIIS: error= 2.73D-05 at cycle   4 NSaved=   4.
 NSaved= 4 IEnMin= 4 EnMin= -344.567006231184     IErMin= 4 ErrMin= 2.73D-05
 ErrMax= 2.73D-05  0.00D+00 EMaxC= 1.00D-01 BMatC= 4.36D-07 BMatP= 1.01D-06
 IDIUse=1 WtCom= 1.00D+00 WtEn= 0.00D+00
 Coeff-Com: -0.271D+00-0.337D+00 0.426D+00 0.118D+01
 Coeff:     -0.271D+00-0.337D+00 0.426D+00 0.118D+01
 Gap=     0.276 Goal=   None    Shift=    0.000
 Gap=     0.327 Goal=   None    Shift=    0.000
 RMSDP=2.11D-05 MaxDP=4.11D-04 DE=-2.98D-06 OVMax= 1.71D-03

 Cycle  14  Pass 1  IDiag  1:
 E= -344.567007761327     Delta-E=       -0.000001530143 Rises=F Damp=F
 DIIS: error= 1.56D-05 at cycle   5 NSaved=   5.
 NSaved= 5 IEnMin= 5 EnMin= -344.567007761327     IErMin= 5 ErrMin= 1.56D-05
 ErrMax= 1.56D-05  0.00D+00 EMaxC= 1.00D-01 BMatC= 1.64D-07 BMatP= 4.36D-07
 IDIUse=1 WtCom= 1.00D+00 WtEn= 0.00D+00
 Coeff-Com:  0.159D+00-0.353D+00-0.463D+00 0.648D+00 0.101D+01
 Coeff:      0.159D+00-0.353D+00-0.463D+00 0.648D+00 0.101D+01
 Gap=     0.276 Goal=   None    Shift=    0.000
 Gap=     0.327 Goal=   None    Shift=    0.000
 RMSDP=1.67D-05 MaxDP=3.54D-04 DE=-1.53D-06 OVMax= 1.46D-03

 Cycle  15  Pass 1  IDiag  1:
 E= -344.567008274332     Delta-E=       -0.000000513005 Rises=F Damp=F
 DIIS: error= 6.32D-06 at cycle   6 NSaved=   6.
 NSaved= 6 IEnMin= 6 EnMin= -344.567008274332     IErMin= 6 ErrMin= 6.32D-06
 ErrMax= 6.32D-06  0.00D+00 EMaxC= 1.00D-01 BMatC= 3.11D-08 BMatP= 1.64D-07
 IDIUse=1 WtCom= 1.00D+00 WtEn= 0.00D+00
 Coeff-Com:  0.102D+00-0.879D-01-0.241D+00 0.655D-01 0.437D+00 0.724D+00
 Coeff:      0.102D+00-0.879D-01-0.241D+00 0.655D-01 0.437D+00 0.724D+00
 Gap=     0.276 Goal=   None    Shift=    0.000
 Gap=     0.327 Goal=   None    Shift=    0.000
 RMSDP=3.30D-06 MaxDP=6.77D-05 DE=-5.13D-07 OVMax= 3.18D-04

 Cycle  16  Pass 1  IDiag  1:
 E= -344.567008311552     Delta-E=       -0.000000037220 Rises=F Damp=F
 DIIS: error= 4.02D-06 at cycle   7 NSaved=   7.
 NSaved= 7 IEnMin= 7 EnMin= -344.567008311552     IErMin= 7 ErrMin= 4.02D-06
 ErrMax= 4.02D-06  0.00D+00 EMaxC= 1.00D-01 BMatC= 7.45D-09 BMatP= 3.11D-08
 IDIUse=1 WtCom= 1.00D+00 WtEn= 0.00D+00
 Coeff-Com: -0.325D-01 0.117D+00 0.119D+00-0.275D+00-0.243D+00 0.215D+00
 Coeff-Com:  0.110D+01
 Coeff:     -0.325D-01 0.117D+00 0.119D+00-0.275D+00-0.243D+00 0.215D+00
 Coeff:      0.110D+01
 Gap=     0.276 Goal=   None    Shift=    0.000
 Gap=     0.327 Goal=   None    Shift=    0.000
 RMSDP=2.66D-06 MaxDP=4.12D-05 DE=-3.72D-08 OVMax= 2.65D-04

 Cycle  17  Pass 1  IDiag  1:
 E= -344.567008326987     Delta-E=       -0.000000015435 Rises=F Damp=F
 DIIS: error= 1.98D-06 at cycle   8 NSaved=   8.
 NSaved= 8 IEnMin= 8 EnMin= -344.567008326987     IErMin= 8 ErrMin= 1.98D-06
 ErrMax= 1.98D-06  0.00D+00 EMaxC= 1.00D-01 BMatC= 1.04D-09 BMatP= 7.45D-09
 IDIUse=1 WtCom= 1.00D+00 WtEn= 0.00D+00
 Coeff-Com: -0.246D-01 0.410D-01 0.672D-01-0.765D-01-0.117D+00-0.768D-01
 Coeff-Com:  0.218D+00 0.968D+00
 Coeff:     -0.246D-01 0.410D-01 0.672D-01-0.765D-01-0.117D+00-0.768D-01
 Coeff:      0.218D+00 0.968D+00
 Gap=     0.276 Goal=   None    Shift=    0.000
 Gap=     0.327 Goal=   None    Shift=    0.000
 RMSDP=9.15D-07 MaxDP=1.52D-05 DE=-1.54D-08 OVMax= 9.48D-05

 Cycle  18  Pass 1  IDiag  1:
 E= -344.567008329358     Delta-E=       -0.000000002371 Rises=F Damp=F
 DIIS: error= 9.66D-07 at cycle   9 NSaved=   9.
 NSaved= 9 IEnMin= 9 EnMin= -344.567008329358     IErMin= 9 ErrMin= 9.66D-07
 ErrMax= 9.66D-07  0.00D+00 EMaxC= 1.00D-01 BMatC= 3.61D-10 BMatP= 1.04D-09
 IDIUse=1 WtCom= 1.00D+00 WtEn= 0.00D+00
 Coeff-Com:  0.256D-02-0.173D-01-0.145D-01 0.438D-01 0.345D-01-0.690D-01
 Coeff-Com: -0.221D+00 0.230D+00 0.101D+01
 Coeff:      0.256D-02-0.173D-01-0.145D-01 0.438D-01 0.345D-01-0.690D-01
 Coeff:     -0.221D+00 0.230D+00 0.101D+01
 Gap=     0.276 Goal=   None    Shift=    0.000
 Gap=     0.327 Goal=   None    Shift=    0.000
 RMSDP=5.08D-07 MaxDP=1.05D-05 DE=-2.37D-09 OVMax= 5.06D-05

 Cycle  19  Pass 1  IDiag  1:
 E= -344.567008330048     Delta-E=       -0.000000000690 Rises=F Damp=F
 DIIS: error= 4.61D-07 at cycle  10 NSaved=  10.
 NSaved=10 IEnMin=10 EnMin= -344.567008330048     IErMin=10 ErrMin= 4.61D-07
 ErrMax= 4.61D-07  0.00D+00 EMaxC= 1.00D-01 BMatC= 8.40D-11 BMatP= 3.61D-10
 IDIUse=1 WtCom= 1.00D+00 WtEn= 0.00D+00
 Coeff-Com:  0.909D-02-0.183D-01-0.281D-01 0.370D-01 0.523D-01 0.151D-01
 Coeff-Com: -0.130D+00-0.262D+00 0.193D+00 0.113D+01
 Coeff:      0.909D-02-0.183D-01-0.281D-01 0.370D-01 0.523D-01 0.151D-01
 Coeff:     -0.130D+00-0.262D+00 0.193D+00 0.113D+01
 Gap=     0.276 Goal=   None    Shift=    0.000
 Gap=     0.327 Goal=   None    Shift=    0.000
 RMSDP=2.61D-07 MaxDP=4.92D-06 DE=-6.90D-10 OVMax= 2.57D-05

 Cycle  20  Pass 1  IDiag  1:
 E= -344.567008330236     Delta-E=       -0.000000000188 Rises=F Damp=F
 DIIS: error= 1.56D-07 at cycle  11 NSaved=  11.
 NSaved=11 IEnMin=11 EnMin= -344.567008330236     IErMin=11 ErrMin= 1.56D-07
 ErrMax= 1.56D-07  0.00D+00 EMaxC= 1.00D-01 BMatC= 1.52D-11 BMatP= 8.40D-11
 IDIUse=1 WtCom= 1.00D+00 WtEn= 0.00D+00
 Coeff-Com:  0.327D-03 0.162D-02-0.214D-03-0.461D-02-0.122D-02 0.153D-01
 Coeff-Com:  0.291D-01-0.647D-01-0.187D+00 0.101D+00 0.111D+01
 Coeff:      0.327D-03 0.162D-02-0.214D-03-0.461D-02-0.122D-02 0.153D-01
 Coeff:      0.291D-01-0.647D-01-0.187D+00 0.101D+00 0.111D+01
 Gap=     0.276 Goal=   None    Shift=    0.000
 Gap=     0.327 Goal=   None    Shift=    0.000
 RMSDP=9.27D-08 MaxDP=1.73D-06 DE=-1.88D-10 OVMax= 8.46D-06

 Cycle  21  Pass 1  IDiag  1:
 E= -344.567008330269     Delta-E=       -0.000000000033 Rises=F Damp=F
 DIIS: error= 1.08D-07 at cycle  12 NSaved=  12.
 NSaved=12 IEnMin=12 EnMin= -344.567008330269     IErMin=12 ErrMin= 1.08D-07
 ErrMax= 1.08D-07  0.00D+00 EMaxC= 1.00D-01 BMatC= 3.85D-12 BMatP= 1.52D-11
 IDIUse=1 WtCom= 1.00D+00 WtEn= 0.00D+00
 Coeff-Com: -0.185D-02 0.428D-02 0.596D-02-0.896D-02-0.119D-01 0.697D-03
 Coeff-Com:  0.359D-01 0.338D-01-0.844D-01-0.219D+00 0.267D+00 0.979D+00
 Coeff:     -0.185D-02 0.428D-02 0.596D-02-0.896D-02-0.119D-01 0.697D-03
 Coeff:      0.359D-01 0.338D-01-0.844D-01-0.219D+00 0.267D+00 0.979D+00
 Gap=     0.276 Goal=   None    Shift=    0.000
 Gap=     0.327 Goal=   None    Shift=    0.000
 RMSDP=3.87D-08 MaxDP=6.69D-07 DE=-3.31D-11 OVMax= 2.97D-06

 Cycle  22  Pass 1  IDiag  1:
 E= -344.567008330274     Delta-E=       -0.000000000005 Rises=F Damp=F
 DIIS: error= 4.31D-08 at cycle  13 NSaved=  13.
 NSaved=13 IEnMin=13 EnMin= -344.567008330274     IErMin=13 ErrMin= 4.31D-08
 ErrMax= 4.31D-08  0.00D+00 EMaxC= 1.00D-01 BMatC= 9.92D-13 BMatP= 3.85D-12
 IDIUse=1 WtCom= 1.00D+00 WtEn= 0.00D+00
 Coeff-Com: -0.398D-03 0.224D-03 0.118D-02-0.308D-03-0.197D-02-0.321D-02
 Coeff-Com:  0.638D-03 0.179D-01 0.384D-01-0.661D-01-0.225D+00 0.205D+00
 Coeff-Com:  0.103D+01
 Coeff:     -0.398D-03 0.224D-03 0.118D-02-0.308D-03-0.197D-02-0.321D-02
 Coeff:      0.638D-03 0.179D-01 0.384D-01-0.661D-01-0.225D+00 0.205D+00
 Coeff:      0.103D+01
 Gap=     0.276 Goal=   None    Shift=    0.000
 Gap=     0.327 Goal=   None    Shift=    0.000
 RMSDP=1.81D-08 MaxDP=3.70D-07 DE=-4.77D-12 OVMax= 1.21D-06

 Cycle  23  Pass 1  IDiag  1:
 E= -344.567008330275     Delta-E=       -0.000000000001 Rises=F Damp=F
 DIIS: error= 2.60D-08 at cycle  14 NSaved=  14.
 NSaved=14 IEnMin=14 EnMin= -344.567008330275     IErMin=14 ErrMin= 2.60D-08
 ErrMax= 2.60D-08  0.00D+00 EMaxC= 1.00D-01 BMatC= 1.79D-13 BMatP= 9.92D-13
 IDIUse=1 WtCom= 1.00D+00 WtEn= 0.00D+00
 Coeff-Com:  0.463D-03-0.120D-02-0.141D-02 0.246D-02 0.288D-02-0.305D-03
 Coeff-Com: -0.915D-02-0.114D-01 0.267D-01 0.560D-01-0.846D-01-0.229D+00
 Coeff-Com:  0.184D-01 0.123D+01
 Coeff:      0.463D-03-0.120D-02-0.141D-02 0.246D-02 0.288D-02-0.305D-03
 Coeff:     -0.915D-02-0.114D-01 0.267D-01 0.560D-01-0.846D-01-0.229D+00
 Coeff:      0.184D-01 0.123D+01
 Gap=     0.276 Goal=   None    Shift=    0.000
 Gap=     0.327 Goal=   None    Shift=    0.000
 RMSDP=1.00D-08 MaxDP=1.82D-07 DE=-1.36D-12 OVMax= 7.99D-07

 Cycle  24  Pass 1  IDiag  1:
 E= -344.567008330275     Delta-E=        0.000000000000 Rises=F Damp=F
 DIIS: error= 7.07D-09 at cycle  15 NSaved=  15.
 NSaved=15 IEnMin=14 EnMin= -344.567008330275     IErMin=15 ErrMin= 7.07D-09
 ErrMax= 7.07D-09  0.00D+00 EMaxC= 1.00D-01 BMatC= 2.94D-14 BMatP= 1.79D-13
 IDIUse=1 WtCom= 1.00D+00 WtEn= 0.00D+00
 Coeff-Com:  0.161D-03-0.329D-03-0.464D-03 0.609D-03 0.926D-03 0.451D-03
 Coeff-Com: -0.196D-02-0.558D-02 0.660D-03 0.228D-01 0.124D-01-0.806D-01
 Coeff-Com: -0.155D+00 0.288D+00 0.918D+00
 Coeff:      0.161D-03-0.329D-03-0.464D-03 0.609D-03 0.926D-03 0.451D-03
 Coeff:     -0.196D-02-0.558D-02 0.660D-03 0.228D-01 0.124D-01-0.806D-01
 Coeff:     -0.155D+00 0.288D+00 0.918D+00
 Gap=     0.276 Goal=   None    Shift=    0.000
 Gap=     0.327 Goal=   None    Shift=    0.000
 RMSDP=3.18D-09 MaxDP=5.57D-08 DE= 0.00D+00 OVMax= 2.49D-07

 SCF Done:  E(UwB97XD) =  -344.567008330     A.U. after   24 cycles
            NFock= 24  Conv=0.32D-08     -V/T= 2.0081
 <Sx>= 0.0000 <Sy>= 0.0000 <Sz>= 0.5000 <S**2>= 0.7897 S= 0.5196
 <L.S>=  0.00000000000    
 KE= 3.417843853793D+02 PE=-1.399910799856D+03 EE= 4.159626147632D+02
 Annihilation of the first spin contaminant:
 S**2 before annihilation     0.7897,   after     0.7507
 Leave Link  502 at Tue May 20 11:19:50 2025, MaxMem=  3758096384 cpu:              68.0 elap:              13.3
 (Enter /gpfs/fs1/soft/bebop/software/custom-built/gaussian/16-c.02/g16/l508.exe)
 QCSCF skips out because SCF is already converged.
 Leave Link  508 at Tue May 20 11:19:51 2025, MaxMem=  3758096384 cpu:               0.0 elap:               0.0
 (Enter /gpfs/fs1/soft/bebop/software/custom-built/gaussian/16-c.02/g16/l601.exe)
 Copying SCF densities to generalized density rwf, IOpCl= 1 IROHF=0.

 **********************************************************************

            Population analysis using the SCF Density.

 **********************************************************************

 Orbital symmetries:
 Alpha Orbitals:
       Occupied  (A) (A) (A) (A) (A) (A) (A) (A) (A) (A) (A) (A)
                 (A) (A) (A) (A) (A) (A) (A) (A) (A) (A) (A) (A)
                 (A) (A) (A)
       Virtual   (A) (A) (A) (A) (A) (A) (A) (A) (A) (A) (A) (A)
                 (A) (A) (A) (A) (A) (A) (A) (A) (A) (A) (A) (A)
                 (A) (A) (A) (A) (A) (A) (A) (A) (A) (A) (A) (A)
                 (A) (A) (A) (A) (A) (A) (A) (A) (A) (A) (A) (A)
                 (A) (A) (A) (A) (A) (A) (A) (A) (A) (A) (A) (A)
                 (A) (A) (A) (A) (A) (A) (A) (A) (A) (A) (A) (A)
                 (A) (A) (A) (A) (A) (A) (A) (A) (A) (A) (A) (A)
                 (A) (A) (A) (A) (A) (A) (A) (A) (A) (A) (A) (A)
                 (A) (A) (A) (A) (A) (A) (A) (A) (A) (A)
 Beta  Orbitals:
       Occupied  (A) (A) (A) (A) (A) (A) (A) (A) (A) (A) (A) (A)
                 (A) (A) (A) (A) (A) (A) (A) (A) (A) (A) (A) (A)
                 (A) (A)
       Virtual   (A) (A) (A) (A) (A) (A) (A) (A) (A) (A) (A) (A)
                 (A) (A) (A) (A) (A) (A) (A) (A) (A) (A) (A) (A)
                 (A) (A) (A) (A) (A) (A) (A) (A) (A) (A) (A) (A)
                 (A) (A) (A) (A) (A) (A) (A) (A) (A) (A) (A) (A)
                 (A) (A) (A) (A) (A) (A) (A) (A) (A) (A) (A) (A)
                 (A) (A) (A) (A) (A) (A) (A) (A) (A) (A) (A) (A)
                 (A) (A) (A) (A) (A) (A) (A) (A) (A) (A) (A) (A)
                 (A) (A) (A) (A) (A) (A) (A) (A) (A) (A) (A) (A)
                 (A) (A) (A) (A) (A) (A) (A) (A) (A) (A) (A)
 The electronic state is 2-A.
 Alpha  occ. eigenvalues --  -19.33808 -19.31912 -10.36084 -10.30182 -10.29561
 Alpha  occ. eigenvalues --  -10.29358 -10.29349  -1.24451  -1.03234  -0.92116
 Alpha  occ. eigenvalues --   -0.82656  -0.77106  -0.67301  -0.65479  -0.62304
 Alpha  occ. eigenvalues --   -0.59185  -0.57597  -0.54307  -0.50665  -0.48246
 Alpha  occ. eigenvalues --   -0.46702  -0.45384  -0.43850  -0.38878  -0.38689
 Alpha  occ. eigenvalues --   -0.32154  -0.23196
 Alpha virt. eigenvalues --    0.04415   0.11420   0.14162   0.14811   0.16761
 Alpha virt. eigenvalues --    0.18092   0.19865   0.22146   0.22667   0.24783
 Alpha virt. eigenvalues --    0.29330   0.35538   0.38847   0.44194   0.45875
 Alpha virt. eigenvalues --    0.48163   0.51972   0.52717   0.55237   0.57116
 Alpha virt. eigenvalues --    0.58446   0.60606   0.62735   0.64451   0.67162
 Alpha virt. eigenvalues --    0.67521   0.71711   0.72180   0.73289   0.73774
 Alpha virt. eigenvalues --    0.75190   0.76813   0.79095   0.80501   0.83956
 Alpha virt. eigenvalues --    0.85166   0.86564   0.91152   0.91243   0.98388
 Alpha virt. eigenvalues --    1.01852   1.03543   1.08278   1.12005   1.18285
 Alpha virt. eigenvalues --    1.19611   1.21925   1.31376   1.33902   1.36192
 Alpha virt. eigenvalues --    1.41805   1.44940   1.48330   1.51494   1.59421
 Alpha virt. eigenvalues --    1.67073   1.69946   1.71360   1.72126   1.73829
 Alpha virt. eigenvalues --    1.76926   1.78620   1.83299   1.83580   1.86735
 Alpha virt. eigenvalues --    1.88354   1.91080   1.93632   1.96111   2.00514
 Alpha virt. eigenvalues --    2.03700   2.05484   2.10817   2.11798   2.17060
 Alpha virt. eigenvalues --    2.18706   2.25452   2.26876   2.27195   2.30857
 Alpha virt. eigenvalues --    2.38799   2.43114   2.47161   2.48615   2.51984
 Alpha virt. eigenvalues --    2.53125   2.55619   2.61063   2.64526   2.71869
 Alpha virt. eigenvalues --    2.78655   2.84779   2.86474   2.87262   2.92705
 Alpha virt. eigenvalues --    3.02003   3.02995   3.06491   3.15092   3.17574
 Alpha virt. eigenvalues --    3.23839   3.36881   3.43509   3.57115   3.65456
 Alpha virt. eigenvalues --    3.96671
  Beta  occ. eigenvalues --  -19.33730 -19.31871 -10.35819 -10.30476 -10.29460
  Beta  occ. eigenvalues --  -10.28971 -10.28499  -1.24279  -1.02908  -0.91374
  Beta  occ. eigenvalues --   -0.81909  -0.75222  -0.66771  -0.65087  -0.61623
  Beta  occ. eigenvalues --   -0.58935  -0.57116  -0.53740  -0.50065  -0.47832
  Beta  occ. eigenvalues --   -0.45969  -0.44792  -0.43478  -0.38179  -0.36345
  Beta  occ. eigenvalues --   -0.30921
  Beta virt. eigenvalues --    0.01759   0.04623   0.12270   0.14539   0.16724
  Beta virt. eigenvalues --    0.17272   0.18459   0.20859   0.22542   0.23022
  Beta virt. eigenvalues --    0.25056   0.29840   0.35887   0.39039   0.44625
  Beta virt. eigenvalues --    0.46102   0.48556   0.52623   0.53026   0.55782
  Beta virt. eigenvalues --    0.57670   0.59264   0.61422   0.63151   0.65566
  Beta virt. eigenvalues --    0.67173   0.68259   0.72245   0.72862   0.74117
  Beta virt. eigenvalues --    0.74470   0.75751   0.77278   0.79885   0.80852
  Beta virt. eigenvalues --    0.84335   0.85415   0.87054   0.91493   0.91922
  Beta virt. eigenvalues --    0.98656   1.01978   1.03843   1.08540   1.12239
  Beta virt. eigenvalues --    1.18543   1.20156   1.22371   1.31793   1.34985
  Beta virt. eigenvalues --    1.36432   1.42137   1.45493   1.48670   1.51782
  Beta virt. eigenvalues --    1.59898   1.67206   1.70314   1.71523   1.72658
  Beta virt. eigenvalues --    1.74052   1.77380   1.78982   1.83996   1.84264
  Beta virt. eigenvalues --    1.87177   1.88597   1.91820   1.94349   1.97267
  Beta virt. eigenvalues --    2.01253   2.04299   2.06067   2.11114   2.12744
  Beta virt. eigenvalues --    2.17886   2.19212   2.26451   2.27440   2.27828
  Beta virt. eigenvalues --    2.32180   2.39831   2.43901   2.48042   2.48961
  Beta virt. eigenvalues --    2.52417   2.53383   2.56541   2.62177   2.65266
  Beta virt. eigenvalues --    2.72235   2.79148   2.85053   2.87173   2.87644
  Beta virt. eigenvalues --    2.93543   3.02041   3.03594   3.06933   3.15514
  Beta virt. eigenvalues --    3.17792   3.24293   3.37130   3.43779   3.57474
  Beta virt. eigenvalues --    3.65520   3.96787
          Condensed to atoms (all electrons):
               1          2          3          4          5          6
     1  C    5.030034   0.348864   0.407413  -0.053301  -0.048712  -0.086179
     2  C    0.348864   4.987905  -0.046477   0.481593   0.427051  -0.055657
     3  H    0.407413  -0.046477   0.628663   0.006115  -0.002542  -0.000180
     4  C   -0.053301   0.481593   0.006115   4.826802  -0.050371   0.492146
     5  H   -0.048712   0.427051  -0.002542  -0.050371   0.635485   0.009835
     6  C   -0.086179  -0.055657  -0.000180   0.492146   0.009835   5.096671
     7  H    0.009052  -0.045563  -0.000302   0.420133  -0.007455  -0.047972
     8  H   -0.009352  -0.022801   0.000458   0.000817  -0.000347   0.368995
     9  H    0.003812   0.009397  -0.000022  -0.022255  -0.000165   0.376383
    10  C    0.512091  -0.049697  -0.026128  -0.038881   0.009035  -0.034834
    11  H   -0.038780   0.008147  -0.011274   0.003792  -0.000282  -0.006169
    12  O   -0.042002  -0.003065   0.002661  -0.007504   0.000009  -0.045681
    13  O    0.002937  -0.000620  -0.000048   0.000584   0.000012   0.005124
    14  H   -0.000321   0.000054  -0.000001   0.000032  -0.000002  -0.000882
               7          8          9         10         11         12
     1  C    0.009052  -0.009352   0.003812   0.512091  -0.038780  -0.042002
     2  C   -0.045563  -0.022801   0.009397  -0.049697   0.008147  -0.003065
     3  H   -0.000302   0.000458  -0.000022  -0.026128  -0.011274   0.002661
     4  C    0.420133   0.000817  -0.022255  -0.038881   0.003792  -0.007504
     5  H   -0.007455  -0.000347  -0.000165   0.009035  -0.000282   0.000009
     6  C   -0.047972   0.368995   0.376383  -0.034834  -0.006169  -0.045681
     7  H    0.638614   0.004560  -0.010065   0.002989  -0.000013  -0.000485
     8  H    0.004560   0.599609  -0.034780   0.014603   0.006120  -0.010567
     9  H   -0.010065  -0.034780   0.640549   0.000328  -0.000243   0.000114
    10  C    0.002989   0.014603   0.000328   4.905665   0.392917   0.274869
    11  H   -0.000013   0.006120  -0.000243   0.392917   0.627213  -0.037142
    12  O   -0.000485  -0.010567   0.000114   0.274869  -0.037142   7.992762
    13  O    0.000011   0.000154  -0.000016  -0.052512   0.009030   0.097420
    14  H   -0.000003   0.000170  -0.000006   0.002640   0.001952  -0.017724
              13         14
     1  C    0.002937  -0.000321
     2  C   -0.000620   0.000054
     3  H   -0.000048  -0.000001
     4  C    0.000584   0.000032
     5  H    0.000012  -0.000002
     6  C    0.005124  -0.000882
     7  H    0.000011  -0.000003
     8  H    0.000154   0.000170
     9  H   -0.000016  -0.000006
    10  C   -0.052512   0.002640
    11  H    0.009030   0.001952
    12  O    0.097420  -0.017724
    13  O    7.772853   0.312207
    14  H    0.312207   0.502682
          Atomic-Atomic Spin Densities.
               1          2          3          4          5          6
     1  C   -0.077050  -0.062971   0.005480   0.012904   0.000319  -0.028698
     2  C   -0.062971   0.632963  -0.007592   0.000117   0.006153  -0.022085
     3  H    0.005480  -0.007592   0.016722   0.000679  -0.000057  -0.002169
     4  C    0.012904   0.000117   0.000679  -0.271305   0.000050  -0.027107
     5  H    0.000319   0.006153  -0.000057   0.000050  -0.030781  -0.000369
     6  C   -0.028698  -0.022085  -0.002169  -0.027107  -0.000369   0.912645
     7  H   -0.000429  -0.004064  -0.000046   0.003413   0.000073  -0.002027
     8  H    0.006269  -0.000953   0.000346   0.001772   0.000011  -0.009566
     9  H    0.000206  -0.000448   0.000026  -0.000159   0.000013  -0.002881
    10  C    0.048142  -0.017088  -0.003379   0.003193  -0.000511  -0.084934
    11  H   -0.001731   0.000099   0.000209  -0.000235   0.000014   0.000948
    12  O    0.001424   0.003736   0.000376   0.005199  -0.000003  -0.047752
    13  O    0.000056  -0.000143  -0.000012  -0.000203  -0.000001   0.002946
    14  H   -0.000032  -0.000023  -0.000003   0.000004   0.000000   0.000575
               7          8          9         10         11         12
     1  C   -0.000429   0.006269   0.000206   0.048142  -0.001731   0.001424
     2  C   -0.004064  -0.000953  -0.000448  -0.017088   0.000099   0.003736
     3  H   -0.000046   0.000346   0.000026  -0.003379   0.000209   0.000376
     4  C    0.003413   0.001772  -0.000159   0.003193  -0.000235   0.005199
     5  H    0.000073   0.000011   0.000013  -0.000511   0.000014  -0.000003
     6  C   -0.002027  -0.009566  -0.002881  -0.084934   0.000948  -0.047752
     7  H    0.022060  -0.000510  -0.000652  -0.000603   0.000002  -0.000195
     8  H   -0.000510  -0.031633   0.003671   0.004623  -0.000168   0.002511
     9  H   -0.000652   0.003671  -0.030498   0.002800   0.000006   0.000454
    10  C   -0.000603   0.004623   0.002800   0.251830   0.002543  -0.012215
    11  H    0.000002  -0.000168   0.000006   0.002543  -0.012668  -0.000068
    12  O   -0.000195   0.002511   0.000454  -0.012215  -0.000068   0.052152
    13  O    0.000004  -0.000158  -0.000033  -0.000658   0.000469  -0.005830
    14  H    0.000002  -0.000026  -0.000035   0.000385  -0.000046  -0.000902
              13         14
     1  C    0.000056  -0.000032
     2  C   -0.000143  -0.000023
     3  H   -0.000012  -0.000003
     4  C   -0.000203   0.000004
     5  H   -0.000001   0.000000
     6  C    0.002946   0.000575
     7  H    0.000004   0.000002
     8  H   -0.000158  -0.000026
     9  H   -0.000033  -0.000035
    10  C   -0.000658   0.000385
    11  H    0.000469  -0.000046
    12  O   -0.005830  -0.000902
    13  O    0.020573   0.000214
    14  H    0.000214  -0.000341
 Mulliken charges and spin densities:
               1          2
     1  C   -0.035557  -0.096113
     2  C   -0.039133   0.527700
     3  H    0.041664   0.010578
     4  C   -0.059702  -0.271678
     5  H    0.028452  -0.025087
     6  C   -0.071600   0.689526
     7  H    0.036500   0.017029
     8  H    0.082361  -0.023811
     9  H    0.036967  -0.027529
    10  C    0.086917   0.194128
    11  H    0.044732  -0.010627
    12  O   -0.203666  -0.001113
    13  O   -0.147135   0.017224
    14  H    0.199201  -0.000227
 Sum of Mulliken charges =  -0.00000   1.00000
 Mulliken charges and spin densities with hydrogens summed into heavy atoms:
               1          2
     1  C    0.006107  -0.085535
     2  C   -0.010681   0.502613
     4  C   -0.023202  -0.254649
     6  C    0.047728   0.638187
    10  C    0.131649   0.183501
    12  O   -0.203666  -0.001113
    13  O    0.052066   0.016997
 Electronic spatial extent (au):  <R**2>=            728.6515
 Charge=             -0.0000 electrons
 Dipole moment (field-independent basis, Debye):
    X=             -0.6498    Y=              0.9628    Z=              1.0632  Tot=              1.5746
 Quadrupole moment (field-independent basis, Debye-Ang):
   XX=            -37.4323   YY=            -38.9175   ZZ=            -41.7068
   XY=             -4.7336   XZ=             -3.0025   YZ=             -1.7538
 Traceless Quadrupole moment (field-independent basis, Debye-Ang):
   XX=              1.9199   YY=              0.4347   ZZ=             -2.3546
   XY=             -4.7336   XZ=             -3.0025   YZ=             -1.7538
 Octapole moment (field-independent basis, Debye-Ang**2):
  XXX=            -34.5684  YYY=              3.3258  ZZZ=             -0.5574  XYY=             -6.9653
  XXY=             12.4084  XXZ=             -6.0147  XZZ=             -5.7178  YZZ=             -0.0027
  YYZ=              0.0092  XYZ=              0.4222
 Hexadecapole moment (field-independent basis, Debye-Ang**3):
 XXXX=           -502.5212 YYYY=           -243.3503 ZZZZ=           -109.2879 XXXY=            -48.0335
 XXXZ=             -9.8094 YYYX=            -10.8419 YYYZ=             -9.0124 ZZZX=              1.4412
 ZZZY=             -3.1263 XXYY=           -121.3307 XXZZ=           -111.5369 YYZZ=            -59.3201
 XXYZ=             -6.5169 YYXZ=             -1.6489 ZZXY=             -1.7602
 N-N= 2.975967913835D+02 E-N=-1.399910799251D+03  KE= 3.417843853793D+02
                          Isotropic Fermi Contact Couplings
        Atom                 a.u.       MegaHertz       Gauss      10(-4) cm-1
     1  C(13)             -0.03591     -40.37399     -14.40644     -13.46731
     2  C(13)              0.09392     105.58238      37.67442      35.21849
     3  H(1)               0.00465      20.78614       7.41701       6.93351
     4  C(13)             -0.07499     -84.30187     -30.08100     -28.12008
     5  H(1)              -0.00774     -34.60227     -12.34695     -11.54208
     6  C(13)              0.18924     212.73677      75.90977      70.96135
     7  H(1)               0.00667      29.79817      10.63273       9.93960
     8  H(1)              -0.00932     -41.66065     -14.86555     -13.89650
     9  H(1)              -0.00743     -33.22396     -11.85514     -11.08232
    10  C(13)              0.03883      43.64775      15.57460      14.55932
    11  H(1)              -0.00329     -14.69598      -5.24389      -4.90205
    12  O(17)              0.17166    -104.06114     -37.13160     -34.71106
    13  O(17)             -0.00263       1.59196       0.56805       0.53102
    14  H(1)              -0.00020      -0.87627      -0.31267      -0.29229
 --------------------------------------------------------
       Center         ----  Spin Dipole Couplings  ----
                      3XX-RR        3YY-RR        3ZZ-RR
 --------------------------------------------------------
     1   Atom        0.011303      0.008069     -0.019372
     2   Atom       -0.008060     -0.260810      0.268870
     3   Atom       -0.000565      0.006318     -0.005753
     4   Atom       -0.061066      0.103706     -0.042640
     5   Atom        0.016382     -0.021174      0.004791
     6   Atom        0.438265     -0.221876     -0.216389
     7   Atom       -0.001860      0.003866     -0.002006
     8   Atom       -0.022601     -0.022132      0.044733
     9   Atom       -0.008755      0.050596     -0.041841
    10   Atom       -0.073921      0.044711      0.029210
    11   Atom        0.000229     -0.005726      0.005497
    12   Atom       -0.031319     -0.007657      0.038976
    13   Atom        0.055444     -0.018012     -0.037433
    14   Atom        0.005225      0.000054     -0.005279
 --------------------------------------------------------
                        XY            XZ            YZ
 --------------------------------------------------------
     1   Atom       -0.021336     -0.036084     -0.024049
     2   Atom       -0.054213      0.363962     -0.064311
     3   Atom       -0.001949     -0.003718     -0.001085
     4   Atom       -0.014409     -0.162231      0.009823
     5   Atom       -0.027219     -0.011004      0.014008
     6   Atom        0.327429      0.346517      0.133930
     7   Atom       -0.005646     -0.006543      0.006463
     8   Atom        0.012041      0.008438     -0.032300
     9   Atom       -0.010189      0.016594      0.001744
    10   Atom        0.093536      0.081465      0.159330
    11   Atom        0.013571     -0.012622     -0.002761
    12   Atom       -0.022747     -0.002175      0.045513
    13   Atom        0.049760      0.020196      0.006254
    14   Atom       -0.002914      0.001742      0.000298
 --------------------------------------------------------


 ---------------------------------------------------------------------------------
              Anisotropic Spin Dipole Couplings in Principal Axis System
 ---------------------------------------------------------------------------------

       Atom             a.u.   MegaHertz   Gauss  10(-4) cm-1        Axes

              Baa    -0.0585    -7.851    -2.802    -2.619  0.5148  0.4324  0.7403
     1 C(13)  Bbb     0.0220     2.956     1.055     0.986  0.0156  0.8586 -0.5123
              Bcc     0.0365     4.895     1.747     1.633  0.8572 -0.2753 -0.4353
 
              Baa    -0.2740   -36.773   -13.121   -12.266  0.4424  0.8758 -0.1928
     2 C(13)  Bbb    -0.2547   -34.173   -12.194   -11.399  0.6962 -0.4709 -0.5418
              Bcc     0.5287    70.946    25.315    23.665  0.5654 -0.1055  0.8181
 
              Baa    -0.0079    -4.236    -1.511    -1.413  0.4737  0.1310  0.8709
     3 H(1)   Bbb     0.0011     0.590     0.211     0.197  0.8444  0.2135 -0.4914
              Bcc     0.0068     3.646     1.301     1.216 -0.2503  0.9681 -0.0095
 
              Baa    -0.2144   -28.769   -10.266    -9.596  0.7272  0.0117  0.6863
     4 C(13)  Bbb     0.0898    12.052     4.301     4.020  0.4279  0.7740 -0.4667
              Bcc     0.1246    16.717     5.965     5.576 -0.5366  0.6331  0.5578
 
              Baa    -0.0369   -19.672    -7.020    -6.562  0.4156  0.8896 -0.1893
     5 H(1)   Bbb    -0.0018    -0.947    -0.338    -0.316  0.4776 -0.0363  0.8778
              Bcc     0.0386    20.619     7.357     6.878  0.7741 -0.4552 -0.4400
 
              Baa    -0.3685   -49.449   -17.645   -16.494 -0.4913  0.3822  0.7827
     6 C(13)  Bbb    -0.3519   -47.220   -16.849   -15.751 -0.1342  0.8546 -0.5016
              Bcc     0.7204    96.669    34.494    32.245  0.8606  0.3514  0.3686
 
              Baa    -0.0085    -4.553    -1.625    -1.519  0.6568 -0.0911  0.7485
     7 H(1)   Bbb    -0.0043    -2.284    -0.815    -0.762  0.5654  0.7163 -0.4090
              Bcc     0.0128     6.837     2.440     2.281 -0.4989  0.6918  0.5220
 
              Baa    -0.0446   -23.782    -8.486    -7.933 -0.5480  0.7687  0.3298
     8 H(1)   Bbb    -0.0134    -7.125    -2.542    -2.377  0.8354  0.5228  0.1694
              Bcc     0.0579    30.907    11.028    10.309  0.0422 -0.3683  0.9287
 
              Baa    -0.0490   -26.166    -9.337    -8.728 -0.3924 -0.0562  0.9181
     9 H(1)   Bbb    -0.0033    -1.743    -0.622    -0.582  0.9044  0.1582  0.3962
              Bcc     0.0523    27.909     9.959     9.309 -0.1675  0.9858 -0.0113
 
              Baa    -0.1275   -17.109    -6.105    -5.707 -0.6458  0.6771 -0.3527
    10 C(13)  Bbb    -0.1172   -15.726    -5.611    -5.245 -0.6719 -0.2847  0.6837
              Bcc     0.2447    32.834    11.716    10.952  0.3626  0.6786  0.6388
 
              Baa    -0.0184    -9.796    -3.495    -3.267  0.6836 -0.6724  0.2839
    11 H(1)   Bbb    -0.0022    -1.182    -0.422    -0.394  0.3071  0.6179  0.7238
              Bcc     0.0206    10.978     3.917     3.662  0.6621  0.4077 -0.6289
 
              Baa    -0.0525     3.799     1.356     1.267  0.6797  0.6631 -0.3137
    12 O(17)  Bbb    -0.0162     1.175     0.419     0.392  0.7200 -0.5213  0.4581
              Bcc     0.0687    -4.974    -1.775    -1.659 -0.1402  0.5372  0.8317
 
              Baa    -0.0457     3.307     1.180     1.103 -0.4488  0.6742  0.5866
    13 O(17)  Bbb    -0.0384     2.782     0.993     0.928  0.1441 -0.5933  0.7920
              Bcc     0.0841    -6.088    -2.172    -2.031  0.8819  0.4400  0.1691
 
              Baa    -0.0057    -3.028    -1.080    -1.010 -0.1949 -0.1495  0.9694
    14 H(1)   Bbb    -0.0010    -0.555    -0.198    -0.185  0.3627  0.9073  0.2129
              Bcc     0.0067     3.583     1.279     1.195  0.9113 -0.3931  0.1226
 

 ---------------------------------------------------------------------------------

 No NMR shielding tensors so no spin-rotation constants.
 Leave Link  601 at Tue May 20 11:19:51 2025, MaxMem=  3758096384 cpu:               0.8 elap:               0.2
 (Enter /gpfs/fs1/soft/bebop/software/custom-built/gaussian/16-c.02/g16/l701.exe)
 ... and contract with generalized density number  0.
 Compute integral first derivatives.
 R6Disp: Adding Grimme-D2 dispersion energy 1st derivatives to the gradient.
   1 Symmetry operations used in ECPInt.
 ECPInt:  NShTT=    2016 NPrTT=    7252 LenC2=    2009 LenP2D=    5984.
 LDataN:  DoStor=T MaxTD1= 5 Len=  102
 Leave Link  701 at Tue May 20 11:19:51 2025, MaxMem=  3758096384 cpu:               0.5 elap:               0.1
 (Enter /gpfs/fs1/soft/bebop/software/custom-built/gaussian/16-c.02/g16/l702.exe)
 L702 exits ... SP integral derivatives will be done elsewhere.
 Leave Link  702 at Tue May 20 11:19:51 2025, MaxMem=  3758096384 cpu:               0.1 elap:               0.0
 (Enter /gpfs/fs1/soft/bebop/software/custom-built/gaussian/16-c.02/g16/l703.exe)
 Integral derivatives from FoFJK, PRISM(SPDF).
 Compute integral first derivatives, UseDBF=F ICtDFT=           0.
 Calling FoFJK, ICntrl=      2127 FMM=F ISym2X=0 I1Cent= 0 IOpClX= 1 NMat=1 NMatS=1 NMatT=0.
 FoFJK:  IHMeth= 1 ICntrl=    2127 DoSepK=T KAlg= 0 I1Cent=           0 FoldK=F
 IRaf=         1 NMat=       1 IRICut=       1 DoRegI=T DoRafI=F ISym2E= 0 IDoP0=0 IntGTp=1.
 FoFCou: FMM=F IPFlag=           0 FMFlag=      100000 FMFlg1=         800
         NFxFlg=           0 DoJE=F BraDBF=F KetDBF=F FulRan=T
         wScrn=  0.000000 ICntrl=      2527 IOpCl=  0 I1Cent=           0 NGrid=           0
         NMat0=    1 NMatS0=      1 NMatT0=    0 NMatD0=    1 NMtDS0=    0 NMtDT0=    0
 Symmetry not used in FoFCou.
 Leave Link  703 at Tue May 20 11:19:53 2025, MaxMem=  3758096384 cpu:              12.9 elap:               2.2
 (Enter /gpfs/fs1/soft/bebop/software/custom-built/gaussian/16-c.02/g16/l716.exe)
 Dipole        =-2.55633220D-01 3.78783263D-01 4.18297434D-01
 ***** Axes restored to original set *****
 -------------------------------------------------------------------
 Center     Atomic                   Forces (Hartrees/Bohr)
 Number     Number              X              Y              Z
 -------------------------------------------------------------------
      1        6          -0.000962732   -0.001103787    0.005909176
      2        6           0.001707846    0.001125835    0.001718041
      3        1          -0.001241514    0.000087312   -0.000866431
      4        6           0.001555380    0.000110395    0.001154086
      5        1          -0.000269673    0.000054159    0.000387149
      6        6          -0.012521645   -0.044057258    0.051450972
      7        1           0.000128410   -0.000196225   -0.000003123
      8        1           0.000350621   -0.001296383    0.000386381
      9        1          -0.000168633    0.000116665   -0.000270921
     10        6           0.015106201    0.043466109   -0.057703224
     11        1          -0.001874502   -0.001314411   -0.000270577
     12        8          -0.001024900    0.001761011   -0.001243798
     13        8          -0.000797577    0.001258055   -0.000639218
     14        1           0.000012719   -0.000011478   -0.000008511
 -------------------------------------------------------------------
 Cartesian Forces:  Max     0.057703224 RMS     0.015628462
 -----------------------------------------------------------------------------------------------
                       Internal Coordinate Forces (Hartree/Bohr or radian)
  Cent   Atom   N1       Length/X         N2         Alpha/Y        N3         Beta/Z          J
 -----------------------------------------------------------------------------------------------
      1  C 
      2  C        1  -0.005582(     1)
      3  H        1  -0.000559(     2)      2   0.002907(    14)
      4  C        2  -0.003738(     3)      1  -0.009090(    15)      3  -0.000134(    26)     0
      5  H        2   0.000077(     4)      1   0.000862(    16)      4   0.000357(    27)     0
      6  C        4   0.005520(     5)      2   0.008986(    17)      1   0.001580(    28)     0
      7  H        4  -0.000039(     6)      2   0.000128(    18)      6  -0.000394(    29)     0
      8  H        6   0.000370(     7)      4   0.000439(    19)      2   0.000896(    30)     0
      9  H        6  -0.000006(     8)      4   0.000429(    20)      8   0.000491(    31)     0
     10  C        6   0.076586(     9)      4   0.026317(    21)      8  -0.001858(    32)     0
     11  H       10   0.000467(    10)      6  -0.003412(    22)      4   0.003538(    33)     0
     12  O       10   0.001753(    11)      6   0.006830(    23)     11   0.001009(    34)     0
     13  O       12   0.001329(    12)     10   0.001200(    24)      1  -0.002059(    35)     0
     14  H       13  -0.000006(    13)     12  -0.000004(    25)     10  -0.000032(    36)     0
 -----------------------------------------------------------------------------------------------
 Internal  Forces:  Max     0.076585926 RMS     0.013841198
 Force constants in internal coordinates: 
                1             2             3             4             5 
      1  0.628414D+00
      2  0.000000D+00  0.344113D+00
      3 -0.519930D-01  0.000000D+00  0.734342D+00
      4  0.000000D+00  0.000000D+00  0.000000D+00  0.347895D+00
      5 -0.233712D+00  0.000000D+00  0.247565D+00  0.000000D+00  0.864814D+00
      6  0.000000D+00  0.000000D+00  0.000000D+00  0.000000D+00  0.000000D+00
      7  0.000000D+00  0.000000D+00  0.000000D+00  0.000000D+00  0.000000D+00
      8  0.000000D+00  0.000000D+00  0.000000D+00  0.000000D+00  0.000000D+00
      9 -0.104715D+00  0.000000D+00 -0.959931D-01  0.000000D+00  0.174389D-01
     10  0.000000D+00  0.000000D+00  0.000000D+00  0.000000D+00  0.000000D+00
     11  0.000000D+00  0.000000D+00  0.000000D+00  0.000000D+00  0.000000D+00
     12  0.000000D+00  0.000000D+00  0.000000D+00  0.000000D+00  0.000000D+00
     13  0.000000D+00  0.000000D+00  0.000000D+00  0.000000D+00  0.000000D+00
     14 -0.522466D-01  0.000000D+00 -0.364752D-01  0.000000D+00  0.211848D-01
     15 -0.250489D+00  0.000000D+00  0.915611D+00  0.000000D+00  0.915102D+00
     16  0.000000D+00  0.000000D+00  0.000000D+00  0.000000D+00  0.000000D+00
     17 -0.866868D+00  0.000000D+00  0.123816D+01  0.000000D+00  0.171575D+01
     18  0.000000D+00  0.000000D+00  0.000000D+00  0.000000D+00  0.000000D+00
     19 -0.462871D-03  0.000000D+00 -0.350730D-04  0.000000D+00  0.509743D-03
     20  0.539436D-03  0.000000D+00  0.408745D-04  0.000000D+00 -0.594061D-03
     21 -0.111101D+01  0.000000D+00  0.897385D+00  0.000000D+00  0.167184D+01
     22  0.352220D-01  0.000000D+00  0.382540D-01  0.000000D+00  0.994622D-03
     23  0.411140D-01  0.000000D+00  0.443008D-01  0.000000D+00  0.767035D-03
     24  0.000000D+00  0.000000D+00  0.000000D+00  0.000000D+00  0.000000D+00
     25  0.000000D+00  0.000000D+00  0.000000D+00  0.000000D+00  0.000000D+00
     26 -0.108643D-01  0.000000D+00  0.381482D-02  0.000000D+00  0.171496D-01
     27  0.000000D+00  0.000000D+00 -0.304440D-02  0.000000D+00 -0.340357D-02
     28  0.103877D+00  0.000000D+00 -0.338580D+00  0.000000D+00 -0.315323D+00
     29  0.000000D+00  0.000000D+00  0.000000D+00  0.000000D+00  0.000000D+00
     30  0.373514D+00  0.000000D+00 -0.745326D+00  0.000000D+00 -0.852446D+00
     31 -0.293540D-03  0.000000D+00 -0.222423D-04  0.000000D+00  0.323265D-03
     32  0.373669D+00  0.000000D+00 -0.745314D+00  0.000000D+00 -0.852617D+00
     33 -0.957171D-01  0.000000D+00 -0.375084D-01  0.000000D+00  0.715846D-01
     34 -0.582761D-01  0.000000D+00 -0.161499D-01  0.000000D+00  0.510589D-01
     35  0.109400D-01  0.000000D+00  0.155092D-01  0.000000D+00  0.436424D-02
     36  0.000000D+00  0.000000D+00  0.000000D+00  0.000000D+00  0.000000D+00
                6             7             8             9            10 
      6  0.342525D+00
      7  0.000000D+00  0.351148D+00
      8  0.000000D+00  0.000000D+00  0.342186D+00
      9  0.000000D+00  0.000000D+00  0.000000D+00  0.176534D+00
     10  0.000000D+00  0.000000D+00  0.000000D+00  0.000000D+00  0.340722D+00
     11  0.000000D+00  0.000000D+00  0.000000D+00  0.000000D+00  0.000000D+00
     12  0.000000D+00  0.000000D+00  0.000000D+00  0.000000D+00  0.000000D+00
     13  0.000000D+00  0.000000D+00  0.000000D+00  0.000000D+00  0.000000D+00
     14  0.000000D+00  0.000000D+00  0.000000D+00  0.436105D-01  0.000000D+00
     15  0.000000D+00  0.000000D+00  0.000000D+00 -0.283784D+00  0.000000D+00
     16  0.000000D+00  0.000000D+00  0.000000D+00  0.000000D+00  0.000000D+00
     17  0.000000D+00  0.000000D+00  0.000000D+00 -0.834113D-01  0.000000D+00
     18  0.000000D+00  0.000000D+00  0.000000D+00  0.000000D+00  0.000000D+00
     19  0.000000D+00  0.000000D+00  0.000000D+00  0.000000D+00  0.000000D+00
     20  0.000000D+00  0.000000D+00  0.000000D+00  0.000000D+00  0.000000D+00
     21  0.000000D+00  0.000000D+00  0.000000D+00  0.235214D+00  0.000000D+00
     22  0.000000D+00  0.000000D+00  0.000000D+00 -0.477263D-01  0.000000D+00
     23  0.000000D+00  0.000000D+00  0.000000D+00 -0.552375D-01  0.000000D+00
     24  0.000000D+00  0.000000D+00  0.000000D+00  0.000000D+00  0.000000D+00
     25  0.000000D+00  0.000000D+00  0.000000D+00  0.000000D+00  0.000000D+00
     26  0.000000D+00  0.000000D+00  0.000000D+00 -0.622048D-02  0.000000D+00
     27  0.000000D+00  0.000000D+00  0.000000D+00  0.408312D-02  0.000000D+00
     28  0.000000D+00  0.000000D+00  0.000000D+00  0.190347D-01  0.000000D+00
     29  0.000000D+00  0.000000D+00  0.000000D+00  0.000000D+00  0.000000D+00
     30  0.000000D+00  0.000000D+00  0.000000D+00  0.244255D-01  0.000000D+00
     31  0.000000D+00  0.000000D+00  0.000000D+00  0.000000D+00  0.000000D+00
     32  0.000000D+00  0.000000D+00  0.000000D+00  0.244255D-01  0.000000D+00
     33  0.000000D+00  0.000000D+00  0.000000D+00  0.405786D-01  0.000000D+00
     34  0.000000D+00  0.000000D+00  0.000000D+00  0.157376D-01  0.000000D+00
     35  0.000000D+00  0.000000D+00  0.000000D+00 -0.196889D-01  0.000000D+00
     36  0.000000D+00  0.000000D+00  0.000000D+00  0.000000D+00  0.000000D+00
               11            12            13            14            15 
     11  0.509958D+00
     12  0.000000D+00  0.408031D+00
     13  0.000000D+00  0.000000D+00  0.539946D+00
     14  0.000000D+00  0.000000D+00  0.000000D+00  0.316308D+00
     15  0.000000D+00  0.000000D+00  0.000000D+00 -0.174591D+00  0.379930D+01
     16  0.000000D+00  0.000000D+00  0.000000D+00  0.000000D+00  0.159599D+00
     17  0.000000D+00  0.000000D+00  0.000000D+00 -0.479325D-01  0.468160D+01
     18  0.000000D+00  0.000000D+00  0.000000D+00  0.000000D+00  0.203777D-05
     19  0.000000D+00  0.000000D+00  0.000000D+00  0.000000D+00  0.525408D-02
     20  0.000000D+00  0.000000D+00  0.000000D+00  0.000000D+00  0.325375D-02
     21  0.000000D+00  0.000000D+00  0.000000D+00  0.101209D+00  0.359400D+01
     22  0.000000D+00  0.000000D+00  0.000000D+00 -0.855682D-02  0.531211D-01
     23  0.000000D+00  0.000000D+00  0.000000D+00  0.104851D-01  0.103553D+00
     24  0.000000D+00  0.000000D+00  0.000000D+00  0.000000D+00  0.000000D+00
     25  0.000000D+00  0.000000D+00  0.000000D+00  0.000000D+00  0.000000D+00
     26  0.000000D+00  0.000000D+00  0.000000D+00  0.801484D-02 -0.100763D-01
     27  0.000000D+00  0.000000D+00  0.000000D+00  0.000000D+00 -0.182868D-01
     28  0.000000D+00  0.000000D+00  0.000000D+00  0.140977D+00 -0.127204D+01
     29  0.000000D+00  0.000000D+00  0.000000D+00  0.000000D+00 -0.877219D-03
     30  0.000000D+00  0.000000D+00  0.000000D+00  0.160096D+00 -0.276086D+01
     31  0.000000D+00  0.000000D+00  0.000000D+00  0.000000D+00 -0.589681D-03
     32  0.000000D+00  0.000000D+00  0.000000D+00  0.160096D+00 -0.275972D+01
     33  0.000000D+00  0.000000D+00  0.000000D+00 -0.488068D-03 -0.113514D-01
     34  0.000000D+00  0.000000D+00  0.000000D+00  0.245757D-02  0.193165D-01
     35  0.000000D+00  0.000000D+00  0.000000D+00  0.000000D+00  0.335693D-01
     36  0.000000D+00  0.000000D+00  0.000000D+00  0.000000D+00  0.000000D+00
               16            17            18            19            20 
     16  0.319668D+00
     17  0.000000D+00  0.827512D+01
     18  0.000000D+00  0.159654D+00  0.319794D+00
     19  0.000000D+00  0.650668D-02  0.000000D+00  0.334920D+00
     20  0.000000D+00  0.160938D-02  0.000000D+00  0.147325D+00  0.365079D+00
     21  0.000000D+00  0.717692D+01  0.000000D+00 -0.278930D-01  0.663274D-01
     22  0.000000D+00 -0.418993D-02  0.000000D+00  0.000000D+00  0.000000D+00
     23  0.000000D+00  0.501138D-01  0.000000D+00  0.000000D+00  0.000000D+00
     24  0.000000D+00  0.000000D+00  0.000000D+00  0.000000D+00  0.000000D+00
     25  0.000000D+00  0.000000D+00  0.000000D+00  0.000000D+00  0.000000D+00
     26 -0.159103D-03  0.233689D-01  0.172814D-04  0.115323D-02 -0.352101D-02
     27 -0.377489D-02 -0.170252D-01  0.000000D+00  0.000000D+00  0.000000D+00
     28 -0.330991D-02 -0.165171D+01  0.255670D-04 -0.115449D-02 -0.583608D-02
     29 -0.165496D-02  0.483429D-02  0.250530D-02  0.000000D+00  0.000000D+00
     30  0.000000D+00 -0.408250D+01  0.430663D-02 -0.110365D-02 -0.386247D-02
     31  0.000000D+00  0.973710D-03  0.143554D-02 -0.366118D-01  0.155196D-01
     32  0.000000D+00 -0.408291D+01  0.143554D-02 -0.410107D-01 -0.575780D-01
     33  0.000000D+00  0.274344D+00  0.000000D+00 -0.479134D-02  0.558389D-02
     34  0.000000D+00  0.209987D+00  0.000000D+00 -0.239567D-02  0.279195D-02
     35  0.000000D+00  0.255737D-01  0.000000D+00  0.000000D+00  0.000000D+00
     36  0.000000D+00  0.000000D+00  0.000000D+00  0.000000D+00  0.000000D+00
               21            22            23            24            25 
     21  0.781449D+01
     22 -0.131857D+00  0.300641D+00
     23 -0.913329D-01  0.459695D-01  0.466640D+00
     24  0.000000D+00  0.000000D+00  0.000000D+00  0.250000D+00
     25  0.000000D+00  0.000000D+00  0.000000D+00  0.000000D+00  0.160000D+00
     26  0.392333D-01  0.231571D-01 -0.315043D-01  0.000000D+00  0.000000D+00
     27 -0.139368D-01  0.000000D+00  0.000000D+00  0.000000D+00  0.000000D+00
     28 -0.132572D+01  0.588639D-02  0.838663D-01  0.000000D+00  0.000000D+00
     29  0.000000D+00  0.000000D+00  0.000000D+00  0.000000D+00  0.000000D+00
     30 -0.358736D+01  0.225335D-01  0.135594D+00  0.000000D+00  0.000000D+00
     31  0.770426D-01  0.000000D+00  0.000000D+00  0.000000D+00  0.000000D+00
     32 -0.358425D+01  0.225335D-01  0.135594D+00  0.000000D+00  0.000000D+00
     33  0.390896D+00  0.559172D-02  0.105960D-02  0.000000D+00  0.000000D+00
     34  0.258101D+00  0.353381D-01 -0.784491D-01  0.000000D+00  0.000000D+00
     35 -0.252134D-01  0.221752D-01  0.398926D-01  0.000000D+00  0.000000D+00
     36  0.000000D+00  0.000000D+00  0.000000D+00  0.000000D+00  0.000000D+00
               26            27            28            29            30 
     26  0.144199D+00
     27  0.128513D-01  0.107492D+00
     28  0.958912D-01 -0.731311D-01  0.144955D+01
     29 -0.503166D-03 -0.216691D-01  0.429885D-01  0.139318D+00
     30  0.389901D-01 -0.214358D-01  0.215130D+01 -0.638993D-01  0.406688D+01
     31  0.158261D-02  0.000000D+00  0.211419D-02 -0.212998D-01  0.448483D-01
     32  0.357229D-01 -0.214358D-01  0.214822D+01 -0.212998D-01  0.397974D+01
     33  0.325745D-03  0.000000D+00  0.248099D+00  0.000000D+00  0.396000D+00
     34 -0.866877D-02  0.000000D+00  0.197673D+00  0.000000D+00  0.315716D+00
     35  0.000000D+00  0.000000D+00  0.330575D-01  0.000000D+00  0.541187D-01
     36  0.000000D+00  0.000000D+00  0.000000D+00  0.000000D+00  0.000000D+00
               31            32            33            34            35 
     31  0.184009D+00
     32 -0.101025D+00  0.417817D+01
     33 -0.303853D-02  0.397607D+00  0.352698D+00
     34 -0.151927D-02  0.316520D+00  0.248813D+00  0.345492D+00
     35  0.000000D+00  0.541187D-01  0.195785D-01  0.179559D-01  0.626984D-01
     36  0.000000D+00  0.000000D+00  0.000000D+00  0.000000D+00  0.000000D+00
               36 
     36  0.880766D-02
[...]
 Alpha  occ. eigenvalues --   -0.31924  -0.25458
 Alpha virt. eigenvalues --    0.04985   0.11010   0.12314   0.15094   0.16211
 Alpha virt. eigenvalues --    0.18140   0.20589   0.21292   0.22569   0.23639
 Alpha virt. eigenvalues --    0.29515   0.33497   0.34650   0.43084   0.46113
 Alpha virt. eigenvalues --    0.47315   0.51381   0.54171   0.54990   0.56846
 Alpha virt. eigenvalues --    0.58588   0.62198   0.62777   0.63214   0.65861
 Alpha virt. eigenvalues --    0.67951   0.69064   0.71909   0.73027   0.73315
 Alpha virt. eigenvalues --    0.75284   0.76614   0.77546   0.79023   0.81724
 Alpha virt. eigenvalues --    0.82964   0.85837   0.86232   0.89446   0.97071
 Alpha virt. eigenvalues --    1.01400   1.06995   1.09407   1.11892   1.13878
 Alpha virt. eigenvalues --    1.17197   1.24989   1.30068   1.31266   1.37257
 Alpha virt. eigenvalues --    1.37625   1.39769   1.46841   1.50703   1.56534
 Alpha virt. eigenvalues --    1.60250   1.62544   1.67196   1.72299   1.72915
 Alpha virt. eigenvalues --    1.76423   1.78496   1.80115   1.82043   1.85722
 Alpha virt. eigenvalues --    1.87445   1.91343   1.95329   1.96888   1.99784
 Alpha virt. eigenvalues --    2.01095   2.02865   2.04926   2.10050   2.13982
 Alpha virt. eigenvalues --    2.18025   2.19489   2.21927   2.27078   2.29530
 Alpha virt. eigenvalues --    2.34257   2.36751   2.40697   2.49087   2.51389
 Alpha virt. eigenvalues --    2.52553   2.53603   2.58206   2.59618   2.71183
 Alpha virt. eigenvalues --    2.73726   2.80021   2.81280   2.91138   2.92246
 Alpha virt. eigenvalues --    2.97995   3.01716   3.04475   3.05465   3.14913
 Alpha virt. eigenvalues --    3.22866   3.26760   3.41829   3.45279   3.65297
 Alpha virt. eigenvalues --    3.93987
  Beta  occ. eigenvalues --  -19.32469 -19.31443 -10.37854 -10.31953 -10.30772
  Beta  occ. eigenvalues --  -10.30152 -10.30132  -1.23261  -1.01599  -0.90457
  Beta  occ. eigenvalues --   -0.79678  -0.75739  -0.67246  -0.63821  -0.61114
  Beta  occ. eigenvalues --   -0.58519  -0.55230  -0.52184  -0.50561  -0.49087
  Beta  occ. eigenvalues --   -0.46753  -0.45325  -0.40952  -0.37510  -0.36661
  Beta  occ. eigenvalues --   -0.30949
  Beta virt. eigenvalues --   -0.00007   0.05233   0.12135   0.13417   0.15576
  Beta virt. eigenvalues --    0.16336   0.18323   0.21039   0.21555   0.22822
  Beta virt. eigenvalues --    0.23939   0.29906   0.33945   0.35573   0.43660
  Beta virt. eigenvalues --    0.46502   0.47601   0.52063   0.54698   0.55672
  Beta virt. eigenvalues --    0.57906   0.58980   0.62701   0.63044   0.66115
  Beta virt. eigenvalues --    0.66411   0.68192   0.69757   0.72359   0.73467
  Beta virt. eigenvalues --    0.74007   0.75588   0.76952   0.77624   0.79395
  Beta virt. eigenvalues --    0.82262   0.83337   0.86280   0.86727   0.89805
  Beta virt. eigenvalues --    0.97193   1.01425   1.07201   1.09524   1.12133
  Beta virt. eigenvalues --    1.13946   1.17300   1.25254   1.30688   1.31886
  Beta virt. eigenvalues --    1.37511   1.38838   1.39921   1.47035   1.50863
  Beta virt. eigenvalues --    1.56667   1.61103   1.63302   1.67541   1.72545
  Beta virt. eigenvalues --    1.73427   1.76830   1.79181   1.80665   1.82557
  Beta virt. eigenvalues --    1.87126   1.87677   1.91955   1.95638   1.97635
  Beta virt. eigenvalues --    2.00520   2.01910   2.03883   2.05562   2.10725
  Beta virt. eigenvalues --    2.14430   2.18937   2.20610   2.22285   2.27085
  Beta virt. eigenvalues --    2.30143   2.34520   2.38165   2.41929   2.49479
  Beta virt. eigenvalues --    2.51836   2.53148   2.54456   2.59264   2.61020
  Beta virt. eigenvalues --    2.71348   2.74339   2.80806   2.81422   2.91719
  Beta virt. eigenvalues --    2.92441   2.98748   3.01794   3.04594   3.05994
  Beta virt. eigenvalues --    3.15263   3.22900   3.26853   3.41950   3.45595
  Beta virt. eigenvalues --    3.65299   3.93985
          Condensed to atoms (all electrons):
               1          2          3          4          5          6
     1  C    5.166780   0.478331   0.394898  -0.023088  -0.052409  -0.122669
     2  C    0.478331   4.715758  -0.026922   0.520470   0.424736  -0.039471
     3  H    0.394898  -0.026922   0.625839   0.007204  -0.007332   0.005214
     4  C   -0.023088   0.520470   0.007204   5.035344  -0.051436   0.315067
     5  H   -0.052409   0.424736  -0.007332  -0.051436   0.650552   0.009550
     6  C   -0.122669  -0.039471   0.005214   0.315067   0.009550   4.896835
     7  H    0.006660  -0.033297  -0.000128   0.405498  -0.008616  -0.043819
     8  H    0.003002   0.003072  -0.000109  -0.022380  -0.000270   0.381794
     9  H    0.002917  -0.001330  -0.000116  -0.015963  -0.000270   0.370275
    10  C    0.292889  -0.031879  -0.040500  -0.076407   0.008961   0.340149
    11  H   -0.031970  -0.000985   0.001122   0.001246  -0.000303  -0.009923
    12  O   -0.038669   0.002723   0.000912   0.001338  -0.000082  -0.021810
    13  O   -0.003598   0.000039   0.000611  -0.000078   0.000004   0.001617
    14  H   -0.000114   0.000016  -0.000069   0.000009  -0.000002  -0.000231
               7          8          9         10         11         12
     1  C    0.006660   0.003002   0.002917   0.292889  -0.031970  -0.038669
     2  C   -0.033297   0.003072  -0.001330  -0.031879  -0.000985   0.002723
     3  H   -0.000128  -0.000109  -0.000116  -0.040500   0.001122   0.000912
     4  C    0.405498  -0.022380  -0.015963  -0.076407   0.001246   0.001338
     5  H   -0.008616  -0.000270  -0.000270   0.008961  -0.000303  -0.000082
     6  C   -0.043819   0.381794   0.370275   0.340149  -0.009923  -0.021810
     7  H    0.627425  -0.001575  -0.000130   0.004446  -0.000108  -0.000025
     8  H   -0.001575   0.609170  -0.026132  -0.011289  -0.001974   0.000777
     9  H   -0.000130  -0.026132   0.596282  -0.009101   0.001602   0.001839
    10  C    0.004446  -0.011289  -0.009101   4.780245   0.385079   0.268593
    11  H   -0.000108  -0.001974   0.001602   0.385079   0.600725  -0.024374
    12  O   -0.000025   0.000777   0.001839   0.268593  -0.024374   7.950042
    13  O    0.000001  -0.000060  -0.000103  -0.028504   0.005033   0.097165
    14  H   -0.000000   0.000006   0.000022   0.003008   0.000036  -0.018886
              13         14
     1  C   -0.003598  -0.000114
     2  C    0.000039   0.000016
     3  H    0.000611  -0.000069
     4  C   -0.000078   0.000009
     5  H    0.000004  -0.000002
     6  C    0.001617  -0.000231
     7  H    0.000001  -0.000000
     8  H   -0.000060   0.000006
     9  H   -0.000103   0.000022
    10  C   -0.028504   0.003008
    11  H    0.005033   0.000036
    12  O    0.097165  -0.018886
    13  O    7.777357   0.311777
    14  H    0.311777   0.505247
          Atomic-Atomic Spin Densities.
               1          2          3          4          5          6
     1  C    0.768552  -0.020769   0.006075  -0.040150  -0.001062  -0.011584
     2  C   -0.020769  -0.272741  -0.000495   0.001588   0.001462  -0.000592
     3  H    0.006075  -0.000495  -0.037256  -0.000282   0.000177   0.000045
     4  C   -0.040150   0.001588  -0.000282   0.752606  -0.001384  -0.049139
     5  H   -0.001062   0.001462   0.000177  -0.001384   0.010576   0.000066
     6  C   -0.011584  -0.000592   0.000045  -0.049139   0.000066   0.106140
     7  H   -0.000513  -0.002834   0.000019   0.007002   0.000311  -0.000210
     8  H    0.000106  -0.000061   0.000012  -0.009811  -0.000003   0.010851
     9  H    0.004251   0.000945  -0.000035  -0.015795   0.000005  -0.002184
    10  C   -0.025149   0.000902   0.000739  -0.001489   0.000036   0.014411
    11  H   -0.011284   0.000693  -0.000280   0.003048   0.000002  -0.009191
    12  O   -0.008946   0.000145   0.000273   0.000030  -0.000000   0.000954
    13  O    0.000330   0.000003  -0.000032  -0.000001  -0.000000  -0.000010
    14  H    0.000089  -0.000003   0.000002   0.000000   0.000000  -0.000022
               7          8          9         10         11         12
     1  C   -0.000513   0.000106   0.004251  -0.025149  -0.011284  -0.008946
     2  C   -0.002834  -0.000061   0.000945   0.000902   0.000693   0.000145
     3  H    0.000019   0.000012  -0.000035   0.000739  -0.000280   0.000273
     4  C    0.007002  -0.009811  -0.015795  -0.001489   0.003048   0.000030
     5  H    0.000311  -0.000003   0.000005   0.000036   0.000002  -0.000000
     6  C   -0.000210   0.010851  -0.002184   0.014411  -0.009191   0.000954
     7  H   -0.028965   0.000258  -0.000782  -0.000045  -0.000048   0.000003
     8  H    0.000258   0.015002  -0.006805   0.000972  -0.001009   0.000052
     9  H   -0.000782  -0.006805   0.051665  -0.002597   0.001007  -0.000089
    10  C   -0.000045   0.000972  -0.002597  -0.097854   0.006850   0.007493
    11  H   -0.000048  -0.001009   0.001007   0.006850   0.037647  -0.003685
    12  O    0.000003   0.000052  -0.000089   0.007493  -0.003685   0.011346
    13  O   -0.000000   0.000001  -0.000000   0.000546  -0.000230   0.002241
    14  H   -0.000000  -0.000001   0.000007   0.000065   0.000211  -0.000592
              13         14
     1  C    0.000330   0.000089
     2  C    0.000003  -0.000003
     3  H   -0.000032   0.000002
     4  C   -0.000001   0.000000
     5  H   -0.000000   0.000000
     6  C   -0.000010  -0.000022
     7  H   -0.000000  -0.000000
     8  H    0.000001  -0.000001
     9  H   -0.000000   0.000007
    10  C    0.000546   0.000065
    11  H   -0.000230   0.000211
    12  O    0.002241  -0.000592
    13  O   -0.007264   0.000078
    14  H    0.000078   0.000220
 Mulliken charges and spin densities:
               1          2
     1  C   -0.072959   0.659947
     2  C   -0.011260  -0.291757
     3  H    0.039377  -0.031039
     4  C   -0.096824   0.646224
     5  H    0.026917   0.010186
     6  C   -0.082577   0.059535
     7  H    0.043668  -0.025804
     8  H    0.065966   0.009564
     9  H    0.080207   0.029593
    10  C    0.114310  -0.095120
    11  H    0.074796   0.023730
    12  O   -0.219543   0.009225
    13  O   -0.161259  -0.004339
    14  H    0.199182   0.000055
 Sum of Mulliken charges =  -0.00000   1.00000
 Mulliken charges and spin densities with hydrogens summed into heavy atoms:
               1          2
     1  C   -0.033582   0.628908
     2  C    0.015657  -0.281570
     4  C   -0.053156   0.620420
     6  C    0.063596   0.098692
    10  C    0.189105  -0.071390
    12  O   -0.219543   0.009225
    13  O    0.037922  -0.004284
 Electronic spatial extent (au):  <R**2>=            870.7665
 Charge=             -0.0000 electrons
 Dipole moment (field-independent basis, Debye):
    X=              0.2287    Y=             -1.4760    Z=              0.2116  Tot=              1.5085
 Quadrupole moment (field-independent basis, Debye-Ang):
   XX=            -36.6053   YY=            -38.4680   ZZ=            -43.0881
   XY=              5.3665   XZ=              0.6918   YZ=              0.9112
 Traceless Quadrupole moment (field-independent basis, Debye-Ang):
   XX=              2.7818   YY=              0.9191   ZZ=             -3.7009
   XY=              5.3665   XZ=              0.6918   YZ=              0.9112
 Octapole moment (field-independent basis, Debye-Ang**2):
  XXX=            -29.6427  YYY=             -2.1329  ZZZ=             -0.1459  XYY=             -6.5919
  XXY=            -16.1961  XXZ=             -6.2797  XZZ=             -9.0861  YZZ=              3.1690
  YYZ=             -1.4541  XYZ=             -0.8643
 Hexadecapole moment (field-independent basis, Debye-Ang**3):
 XXXX=           -668.6913 YYYY=           -241.3239 ZZZZ=            -68.5132 XXXY=             46.5003
 XXXZ=             19.2000 YYYX=              0.3844 YYYZ=              3.6111 ZZZX=             -0.0018
 ZZZY=             -0.0094 XXYY=           -157.5997 XXZZ=           -149.1213 YYZZ=            -53.9402
 XXYZ=              4.5084 YYXZ=              1.1840 ZZXY=              2.6431
 N-N= 2.821744974953D+02 E-N=-1.368644525106D+03  KE= 3.411865064944D+02
                          Isotropic Fermi Contact Couplings
        Atom                 a.u.       MegaHertz       Gauss      10(-4) cm-1
     1  C(13)              0.11588     130.26888      46.48317      43.45302
     2  C(13)             -0.07137     -80.23219     -28.62884     -26.76258
     3  H(1)              -0.00953     -42.58108     -15.19399     -14.20352
     4  C(13)              0.10894     122.46679      43.69920      40.85052
     5  H(1)               0.00303      13.53279       4.82884       4.51405
     6  C(13)              0.00704       7.91947       2.82586       2.64165
     7  H(1)              -0.00705     -31.51280     -11.24455     -10.51154
     8  H(1)               0.00585      26.16590       9.33665       8.72801
     9  H(1)               0.01379      61.65765      22.00098      20.56678
    10  C(13)             -0.05308     -59.66993     -21.29171     -19.90375
    11  H(1)               0.01205      53.87883      19.22531      17.97204
    12  O(17)              0.00538      -3.25925      -1.16298      -1.08717
    13  O(17)             -0.00755       4.57896       1.63389       1.52738
    14  H(1)               0.00008       0.36727       0.13105       0.12251
 --------------------------------------------------------
       Center         ----  Spin Dipole Couplings  ----
                      3XX-RR        3YY-RR        3ZZ-RR
 --------------------------------------------------------
     1   Atom       -0.336230     -0.284910      0.621140
     2   Atom        0.111027      0.110282     -0.221309
     3   Atom       -0.031754      0.033193     -0.001439
     4   Atom       -0.328402     -0.342122      0.670525
     5   Atom        0.004380      0.004326     -0.008706
     6   Atom        0.053118     -0.009202     -0.043916
     7   Atom        0.044082     -0.041130     -0.002953
     8   Atom       -0.004584      0.009235     -0.004651
     9   Atom       -0.002523      0.000075      0.002448
    10   Atom        0.013392     -0.024682      0.011289
    11   Atom        0.003172      0.000096     -0.003268
    12   Atom        0.013995     -0.005008     -0.008987
    13   Atom       -0.011167      0.007818      0.003349
    14   Atom        0.003773     -0.002048     -0.001725
 --------------------------------------------------------
                        XY            XZ            YZ
 --------------------------------------------------------
     1   Atom       -0.011035      0.081774     -0.208676
     2   Atom        0.016313     -0.008640      0.020427
     3   Atom        0.031752      0.009868      0.005175
     4   Atom        0.002233     -0.021583      0.026935
     5   Atom        0.008778     -0.000363      0.000385
     6   Atom        0.065499     -0.044496     -0.024213
     7   Atom        0.019201      0.002658      0.002868
     8   Atom        0.000146     -0.000388      0.011707
     9   Atom       -0.004738      0.008625     -0.008753
    10   Atom       -0.035295      0.009476      0.020376
    11   Atom       -0.004255     -0.002531      0.004018
    12   Atom       -0.029962      0.015449     -0.047066
    13   Atom       -0.009779      0.009115      0.005433
    14   Atom       -0.000481      0.000158     -0.000642
 --------------------------------------------------------


 ---------------------------------------------------------------------------------
              Anisotropic Spin Dipole Couplings in Principal Axis System
 ---------------------------------------------------------------------------------

       Atom             a.u.   MegaHertz   Gauss  10(-4) cm-1        Axes

              Baa    -0.3459   -46.415   -16.562   -15.482  0.9120 -0.3781 -0.1587
     1 C(13)  Bbb    -0.3277   -43.975   -15.691   -14.668  0.4020  0.9009  0.1635
              Bcc     0.6736    90.389    32.253    30.151  0.0812 -0.2129  0.9737
 
              Baa    -0.2228   -29.903   -10.670    -9.975  0.0289 -0.0626  0.9976
     2 C(13)  Bbb     0.0957    12.838     4.581     4.282  0.7094 -0.7019 -0.0646
              Bcc     0.1272    17.065     6.089     5.692  0.7042  0.7096  0.0241
 
              Baa    -0.0459   -24.480    -8.735    -8.166  0.9193 -0.3585 -0.1624
     3 H(1)   Bbb    -0.0018    -0.935    -0.334    -0.312  0.0853 -0.2213  0.9715
              Bcc     0.0476    25.414     9.068     8.477  0.3842  0.9069  0.1729
 
              Baa    -0.3434   -46.078   -16.442   -15.370 -0.1897  0.9814 -0.0301
     4 C(13)  Bbb    -0.3283   -44.058   -15.721   -14.696  0.9816  0.1902  0.0161
              Bcc     0.6717    90.136    32.163    30.066 -0.0215  0.0265  0.9994
 
              Baa    -0.0088    -4.680    -1.670    -1.561  0.0847 -0.0859  0.9927
     5 H(1)   Bbb    -0.0044    -2.327    -0.830    -0.776 -0.7009  0.7030  0.1207
              Bcc     0.0131     7.006     2.500     2.337  0.7082  0.7060  0.0007
 
              Baa    -0.0613    -8.229    -2.936    -2.745  0.3998 -0.0782  0.9132
     6 C(13)  Bbb    -0.0497    -6.665    -2.378    -2.223 -0.4345  0.8611  0.2640
              Bcc     0.1110    14.894     5.315     4.968  0.8071  0.5023 -0.3103
 
              Baa    -0.0454   -24.210    -8.639    -8.076 -0.2081  0.9767 -0.0530
     7 H(1)   Bbb    -0.0030    -1.618    -0.577    -0.540 -0.0720  0.0387  0.9967
              Bcc     0.0484    25.829     9.216     8.615  0.9755  0.2112  0.0623
 
              Baa    -0.0113    -6.053    -2.160    -2.019  0.0604 -0.4939  0.8674
     8 H(1)   Bbb    -0.0046    -2.433    -0.868    -0.811  0.9982  0.0327 -0.0509
              Bcc     0.0159     8.485     3.028     2.830 -0.0032  0.8689  0.4950
 
              Baa    -0.0095    -5.077    -1.812    -1.694 -0.6437  0.3175  0.6963
     9 H(1)   Bbb    -0.0058    -3.101    -1.106    -1.034  0.5979  0.7766  0.1987
              Bcc     0.0153     8.178     2.918     2.728  0.4777 -0.5442  0.6897
 
              Baa    -0.0535    -7.175    -2.560    -2.393  0.4770  0.8160 -0.3265
    10 C(13)  Bbb     0.0187     2.510     0.896     0.837  0.2839  0.2085  0.9359
              Bcc     0.0348     4.665     1.665     1.556  0.8318 -0.5392 -0.1322
 
              Baa    -0.0060    -3.176    -1.133    -1.059 -0.0395 -0.5720  0.8193
    11 H(1)   Bbb    -0.0020    -1.051    -0.375    -0.351  0.6914  0.5763  0.4357
              Bcc     0.0079     4.227     1.508     1.410  0.7214 -0.5836 -0.3727
 
              Baa    -0.0557     4.028     1.437     1.344  0.1607  0.7211  0.6739
    12 O(17)  Bbb    -0.0065     0.470     0.168     0.157  0.8107  0.2930 -0.5069
              Bcc     0.0622    -4.498    -1.605    -1.500 -0.5630  0.6278 -0.5376
 
              Baa    -0.0200     1.450     0.517     0.484  0.8323  0.3723 -0.4108
    13 O(17)  Bbb     0.0077    -0.555    -0.198    -0.185  0.4810 -0.1163  0.8690
              Bcc     0.0124    -0.895    -0.319    -0.299 -0.2757  0.9208  0.2758
 
              Baa    -0.0026    -1.367    -0.488    -0.456  0.0455  0.7963  0.6031
    14 H(1)   Bbb    -0.0013    -0.672    -0.240    -0.224 -0.0823 -0.5987  0.7967
              Bcc     0.0038     2.039     0.727     0.680  0.9956 -0.0858  0.0383
 

 ---------------------------------------------------------------------------------

 No NMR shielding tensors so no spin-rotation constants.
 Leave Link  601 at Tue May 20 11:30:57 2025, MaxMem=  3758096384 cpu:               0.8 elap:               0.2
 (Enter /gpfs/fs1/soft/bebop/software/custom-built/gaussian/16-c.02/g16/l9999.exe)


 YOU CAN WIPE THE SLATE CLEAN, BUT YOU'LL STILL
 HAVE TO EAT A LITTLE CHALK DUST.
 Error termination request processed by link 9999.
 Error termination via Lnk1e in /gpfs/fs1/soft/bebop/software/custom-built/gaussian/16-c.02/g16/l9999.exe at Tue May 20 11:30:57 2025.
 Job cpu time:       0 days  0 hours 57 minutes 45.1 seconds.
 Elapsed time:       0 days  0 hours 11 minutes 16.2 seconds.
 File lengths (MBytes):  RWF=     15 Int=      0 D2E=      0 Chk=      3 Scr=      1
