 Entering Gaussian System, Link 0=g16
 Input=run.inp_2.225
 Output=run.out_2.225
 Initial command:
 /gpfs/fs1/soft/bebop/software/custom-built/gaussian/16-c.02/g16/l1.exe "/scratch/Gau-2174907.inp" -scrdir="/scratch/"
 Default CPUs for threads: 0-35
 Default is to use a total of  36 processors:
                               36 via shared-memory
                                1 via Linda
 Entering Link 1 = /gpfs/fs1/soft/bebop/software/custom-built/gaussian/16-c.02/g16/l1.exe PID=   2174908.
  
 Copyright (c) 1988-2019, Gaussian, Inc.  All Rights Reserved.
  
 This is part of the Gaussian(R) 16 program.  It is based on
 the Gaussian(R) 09 system (copyright 2009, Gaussian, Inc.),
 the Gaussian(R) 03 system (copyright 2003, Gaussian, Inc.),
 the Gaussian(R) 98 system (copyright 1998, Gaussian, Inc.),
 the Gaussian(R) 94 system (copyright 1995, Gaussian, Inc.),
 the Gaussian 92(TM) system (copyright 1992, Gaussian, Inc.),
 the Gaussian 90(TM) system (copyright 1990, Gaussian, Inc.),
 the Gaussian 88(TM) system (copyright 1988, Gaussian, Inc.),
 the Gaussian 86(TM) system (copyright 1986, Carnegie Mellon
 University), and the Gaussian 82(TM) system (copyright 1983,
 Carnegie Mellon University). Gaussian is a federally registered
 trademark of Gaussian, Inc.
  
 This software contains proprietary and confidential information,
 including trade secrets, belonging to Gaussian, Inc.
  
 This software is provided under written license and may be
 used, copied, transmitted, or stored only in accord with that
 written license.
  
 The following legend is applicable only to US Government
 contracts under FAR:
  
                    RESTRICTED RIGHTS LEGEND
  
 Use, reproduction and disclosure by the US Government is
 subject to restrictions as set forth in subparagraphs (a)
 and (c) of the Commercial Computer Software - Restricted
 Rights clause in FAR 52.227-19.
  
 Gaussian, Inc.
 340 Quinnipiac St., Bldg. 40, Wallingford CT 06492
  
  
 ---------------------------------------------------------------
 Warning -- This program may not be used in any manner that
 competes with the business of Gaussian, Inc. or will provide
 assistance to any competitor of Gaussian, Inc.  The licensee
 of this program is prohibited from giving any competitor of
 Gaussian, Inc. access to this program.  By using this program,
 the user acknowledges that Gaussian, Inc. is engaged in the
 business of creating and licensing software in the field of
 computational chemistry and represents and warrants to the
 licensee that it is not a competitor of Gaussian, Inc. and that
 it will not use this program in any manner prohibited above.
 ---------------------------------------------------------------
  

 Cite this work as:
 Gaussian 16, Revision C.01,
 M. J. Frisch, G. W. Trucks, H. B. Schlegel, G. E. Scuseria, 
 M. A. Robb, J. R. Cheeseman, G. Scalmani, V. Barone, 
 G. A. Petersson, H. Nakatsuji, X. Li, M. Caricato, A. V. Marenich, 
 J. Bloino, B. G. Janesko, R. Gomperts, B. Mennucci, H. P. Hratchian, 
 J. V. Ortiz, A. F. Izmaylov, J. L. Sonnenberg, D. Williams-Young, 
 F. Ding, F. Lipparini, F. Egidi, J. Goings, B. Peng, A. Petrone, 
 T. Henderson, D. Ranasinghe, V. G. Zakrzewski, J. Gao, N. Rega, 
 G. Zheng, W. Liang, M. Hada, M. Ehara, K. Toyota, R. Fukuda, 
 J. Hasegawa, M. Ishida, T. Nakajima, Y. Honda, O. Kitao, H. Nakai, 
 T. Vreven, K. Throssell, J. A. Montgomery, Jr., J. E. Peralta, 
 F. Ogliaro, M. J. Bearpark, J. J. Heyd, E. N. Brothers, K. N. Kudin, 
 V. N. Staroverov, T. A. Keith, R. Kobayashi, J. Normand, 
 K. Raghavachari, A. P. Rendell, J. C. Burant, S. S. Iyengar, 
 J. Tomasi, M. Cossi, J. M. Millam, M. Klene, C. Adamo, R. Cammi, 
 J. W. Ochterski, R. L. Martin, K. Morokuma, O. Farkas, 
 J. B. Foresman, and D. J. Fox, Gaussian, Inc., Wallingford CT, 2019.
 
 ******************************************
 Gaussian 16:  ES64L-G16RevC.01  3-Jul-2019
                20-May-2025 
 ******************************************
 %mem=28GB
 %NProcShared=6
 Will use up to    6 processors via shared memory.
 -------------------------------------------------------
 #P wb97xd/def2svp # SCF=(xqc) # POpt=() # int=ultrafine
 -------------------------------------------------------
 1/10=7,26=4,38=1/1,3;
 2/12=2,17=6,18=5,29=3,40=1/2;
 3/5=43,7=101,11=2,25=1,30=1,71=1,74=-58,75=-5/1,2,3;
 4//1;
 5/5=2,8=3,13=1,38=5/2,8;
 6/7=2,8=2,9=2,10=2,28=1/1;
 7/29=1/1,2,3,16;
 1/10=7,26=4/3(2);
 2/29=3/2;
 99//99;
 2/29=3/2;
 3/5=43,7=101,11=2,25=1,30=1,71=1,74=-58,75=-5/1,2,3;
 4/5=5,16=3,69=1/1;
 5/5=2,8=3,13=1,38=5/2,8;
 7//1,2,3,16;
 1/26=4/3(-5);
 2/29=3/2;
 6/7=2,8=2,9=2,10=2,19=2,28=1/1;
 99/9=1/99;
 Leave Link    1 at Tue May 20 12:06:38 2025, MaxMem=  3758096384 cpu:               1.0 elap:               0.1
 (Enter /gpfs/fs1/soft/bebop/software/custom-built/gaussian/16-c.02/g16/l101.exe)
 --------
 comment:
 --------
 Symbolic Z-matrix:
 Charge =  0 Multiplicity = 2
 C
 C                    1    R1
 H                    1    R2       2    A2
 C                    2    R3       1    A3       3    D3       0
 H                    2    R4       1    A4       4    D4       0
 C                    4    R5       2    A5       1    D5       0
 H                    4    R6       2    A6       6    D6       0
 H                    6    R7       4    A7       2    D7       0
 H                    6    R8       4    A8       8    D8       0
 C                    6    R9       4    A9       8    D9       0
 H                    10   R10      6    A10      4    D10      0
 O                    10   R11      6    A11      11   D11      0
 O                    12   R12      10   A12      1    D12      0
 H                    13   R13      12   A13      10   D13      0
       Variables:
  R1                    1.4351                   
  R2                    1.0935                   
  R3                    1.3854                   
  R4                    1.0902                   
  R5                    1.4035                   
  R6                    1.0951                   
  R7                    1.0883                   
  R8                    1.0951                   
  R10                   1.097                    
  R11                   1.3724                   
  R12                   1.4327                   
  R13                   0.967                    
  A2                  123.406                    
  A3                  110.5835                   
  A4                  125.0294                   
  A5                  119.0314                   
  A6                  121.3319                   
  A7                  123.5437                   
  A8                  118.2276                   
  A9                   89.3718                   
  A10                 126.103                    
  A11                  75.0796                   
  A12                 106.0492                   
  A13                  99.6413                   
  D3                  224.9303                   
  D4                  177.3572                   
  D5                    7.8391                   
  D6                  183.4275                   
  D7                   38.4441                   
  D8                  156.6256                   
  D9                  298.0228                   
  D10                 158.3015                   
  D11                 104.4849                   
  D12                 128.1047                   
  D13                 135.7334                   
       Constants:
  R9                    2.225                    
 
 ITRead=  0  0  0  0  0  0  0  0  0  0  0  0  0  0
 MicOpt= -1 -1 -1 -1 -1 -1 -1 -1 -1 -1 -1 -1 -1 -1
 NAtoms=     14 NQM=       14 NQMF=       0 NMMI=      0 NMMIF=      0
                NMic=       0 NMicF=      0.
                    Isotopes and Nuclear Properties:
 (Nuclear quadrupole moments (NQMom) in fm**2, nuclear magnetic moments (NMagM)
  in nuclear magnetons)

  Atom         1           2           3           4           5           6           7           8           9          10
 IAtWgt=          12          12           1          12           1          12           1           1           1          12
 AtmWgt=  12.0000000  12.0000000   1.0078250  12.0000000   1.0078250  12.0000000   1.0078250   1.0078250   1.0078250  12.0000000
 NucSpn=           0           0           1           0           1           0           1           1           1           0
 AtZEff=  -0.0000000  -0.0000000  -0.0000000  -0.0000000  -0.0000000  -0.0000000  -0.0000000  -0.0000000  -0.0000000  -0.0000000
 NQMom=    0.0000000   0.0000000   0.0000000   0.0000000   0.0000000   0.0000000   0.0000000   0.0000000   0.0000000   0.0000000
 NMagM=    0.0000000   0.0000000   2.7928460   0.0000000   2.7928460   0.0000000   2.7928460   2.7928460   2.7928460   0.0000000
 AtZNuc=   6.0000000   6.0000000   1.0000000   6.0000000   1.0000000   6.0000000   1.0000000   1.0000000   1.0000000   6.0000000

  Atom        11          12          13          14
 IAtWgt=           1          16          16           1
 AtmWgt=   1.0078250  15.9949146  15.9949146   1.0078250
 NucSpn=           1           0           0           1
 AtZEff=  -0.0000000  -0.0000000  -0.0000000  -0.0000000
 NQMom=    0.0000000   0.0000000   0.0000000   0.0000000
 NMagM=    2.7928460   0.0000000   0.0000000   2.7928460
 AtZNuc=   1.0000000   8.0000000   8.0000000   1.0000000
 Leave Link  101 at Tue May 20 12:06:38 2025, MaxMem=  3758096384 cpu:               0.6 elap:               0.1
 (Enter /gpfs/fs1/soft/bebop/software/custom-built/gaussian/16-c.02/g16/l103.exe)

 GradGradGradGradGradGradGradGradGradGradGradGradGradGradGradGradGradGrad
 Berny optimization.
 Initialization pass.
                       ----------------------------
                       !    Initial Parameters    !
                       ! (Angstroms and Degrees)  !
 ----------------------                            ----------------------
 !      Name          Value   Derivative information (Atomic Units)     !
 ------------------------------------------------------------------------
 !       R1          1.4351   estimate D2E/DX2                          !
 !       R2          1.0935   estimate D2E/DX2                          !
 !       R3          1.3854   estimate D2E/DX2                          !
 !       R4          1.0902   estimate D2E/DX2                          !
 !       R5          1.4035   estimate D2E/DX2                          !
 !       R6          1.0951   estimate D2E/DX2                          !
 !       R7          1.0883   estimate D2E/DX2                          !
 !       R8          1.0951   estimate D2E/DX2                          !
 !       R10         1.097    estimate D2E/DX2                          !
 !       R11         1.3724   estimate D2E/DX2                          !
 !       R12         1.4327   estimate D2E/DX2                          !
 !       R13         0.967    estimate D2E/DX2                          !
 !       A2        123.406    estimate D2E/DX2                          !
 !       A3        110.5835   estimate D2E/DX2                          !
 !       A4        125.0294   estimate D2E/DX2                          !
 !       A5        119.0314   estimate D2E/DX2                          !
 !       A6        121.3319   estimate D2E/DX2                          !
 !       A7        123.5437   estimate D2E/DX2                          !
 !       A8        118.2276   estimate D2E/DX2                          !
 !       A9         89.3718   estimate D2E/DX2                          !
 !       A10       126.103    estimate D2E/DX2                          !
 !       A11        75.0796   estimate D2E/DX2                          !
 !       A12       106.0492   estimate D2E/DX2                          !
 !       A13        99.6413   estimate D2E/DX2                          !
 !       D3        224.9303   estimate D2E/DX2                          !
 !       D4        177.3572   estimate D2E/DX2                          !
 !       D5          7.8391   estimate D2E/DX2                          !
 !       D6        183.4275   estimate D2E/DX2                          !
 !       D7         38.4441   estimate D2E/DX2                          !
 !       D8        156.6256   estimate D2E/DX2                          !
 !       D9        298.0228   estimate D2E/DX2                          !
 !       D10       158.3015   estimate D2E/DX2                          !
 !       D11       104.4849   estimate D2E/DX2                          !
 !       D12       128.1047   estimate D2E/DX2                          !
 !       D13       135.7334   estimate D2E/DX2                          !
 !       R9          2.225    Frozen                                    !
 ------------------------------------------------------------------------
 Trust Radius=3.00D-01 FncErr=1.00D-07 GrdErr=1.00D-06 EigMax=2.50D+02 EigMin=1.00D-04
 Number of steps in this run=     46 maximum allowed number of steps=    100.
 GradGradGradGradGradGradGradGradGradGradGradGradGradGradGradGradGradGrad

 Leave Link  103 at Tue May 20 12:06:38 2025, MaxMem=  3758096384 cpu:               0.1 elap:               0.0
 (Enter /gpfs/fs1/soft/bebop/software/custom-built/gaussian/16-c.02/g16/l202.exe)
 ---------------------------------------------------------------------------------------------------
                            Z-MATRIX (ANGSTROMS AND DEGREES)
   CD    Cent   Atom    N1       Length/X        N2       Alpha/Y        N3        Beta/Z          J
 ---------------------------------------------------------------------------------------------------
      1      1  C 
      2      2  C        1   1.435100(     1)
      3      3  H        1   1.093500(     2)      2  123.406(    14)
      4      4  C        2   1.385400(     3)      1  110.584(    15)      3  224.930(    26)      0
      5      5  H        2   1.090200(     4)      1  125.029(    16)      4  177.357(    27)      0
      6      6  C        4   1.403500(     5)      2  119.031(    17)      1    7.839(    28)      0
      7      7  H        4   1.095100(     6)      2  121.332(    18)      6  183.428(    29)      0
      8      8  H        6   1.088300(     7)      4  123.544(    19)      2   38.444(    30)      0
      9      9  H        6   1.095100(     8)      4  118.228(    20)      8  156.626(    31)      0
     10     10  C        6   2.225000(     9)      4   89.372(    21)      8  298.023(    32)      0
     11     11  H       10   1.097000(    10)      6  126.103(    22)      4  158.302(    33)      0
     12     12  O       10   1.372400(    11)      6   75.080(    23)     11  104.485(    34)      0
     13     13  O       12   1.432700(    12)     10  106.049(    24)      1  128.105(    35)      0
     14     14  H       13   0.967000(    13)     12   99.641(    25)     10  135.733(    36)      0
 ---------------------------------------------------------------------------------------------------
                         Z-Matrix orientation:                         
 ---------------------------------------------------------------------
 Center     Atomic      Atomic             Coordinates (Angstroms)
 Number     Number       Type             X           Y           Z
 ---------------------------------------------------------------------
      1          6           0        0.000000    0.000000    0.000000
      2          6           0        0.000000    0.000000    1.435100
      3          1           0        0.912843    0.000000   -0.602046
      4          6           0       -0.918202   -0.915971    1.922168
      5          1           0        0.660413    0.600667    2.060871
      6          6           0       -1.553996   -1.786635    1.023545
      7          1           0       -1.196348   -0.935302    2.981179
      8          1           0       -1.052810   -2.243537    0.172400
      9          1           0       -2.444636   -2.324227    1.365597
     10          6           0       -1.161291   -0.338428   -0.619350
     11          1           0       -1.132011   -0.569386   -1.691362
     12          8           0       -2.449753   -0.081766   -0.222525
     13          8           0       -3.095512    0.530453   -1.345384
     14          1           0       -3.933960    0.048866   -1.332410
 ---------------------------------------------------------------------
                    Distance matrix (angstroms):
                    1          2          3          4          5
     1  C    0.000000
     2  C    1.435100   0.000000
     3  H    1.093500   2.232319   0.000000
     4  C    2.318799   1.385400   3.250136   0.000000
     5  H    2.245916   1.090200   2.741469   2.193503   0.000000
     6  C    2.579654   2.403403   3.452522   1.403500   3.417435
     7  H    3.345664   2.167118   4.261805   1.095100   2.579482
     8  H    2.484268   2.781417   3.081723   2.200509   3.819811
     9  H    3.639111   3.373886   4.532805   2.150106   4.322007
    10  C    1.358942   2.384092   2.101634   2.617625   3.374032
    11  H    2.113375   3.373487   2.385841   3.636404   4.319845
    12  O    2.461198   2.959003   3.384934   2.764282   3.918259
    13  O    3.416670   4.194600   4.111064   4.184461   5.070945
    14  H    4.153763   4.810149   4.901767   4.540703   5.738215
                    6          7          8          9         10
     6  C    0.000000
     7  H    2.164489   0.000000
     8  H    1.088300   3.101826   0.000000
     9  H    1.095100   2.469300   1.835051   0.000000
    10  C    2.225000   3.649836   2.065932   3.087132   0.000000
    11  H    3.005078   4.687289   2.506525   3.761310   1.097000
    12  O    2.293829   3.544471   2.603972   2.747869   1.372400
    13  O    3.654722   4.947162   3.764482   3.990270   2.241271
    14  H    3.818876   5.202899   3.977510   3.889588   2.888969
                   11         12         13         14
    11  H    0.000000
    12  O    2.032658   0.000000
    13  O    2.276990   1.432700   0.000000
    14  H    2.891712   1.857896   0.967000   0.000000
 Stoichiometry    C5H7O2(2)
 Framework group  C1[X(C5H7O2)]
 Deg. of freedom    36
 Full point group                 C1      NOp   1
 Largest Abelian subgroup         C1      NOp   1
 Largest concise Abelian subgroup C1      NOp   1
                         Standard orientation:                         
 ---------------------------------------------------------------------
 Center     Atomic      Atomic             Coordinates (Angstroms)
 Number     Number       Type             X           Y           Z
 ---------------------------------------------------------------------
      1          6           0        0.655861   -1.290997    0.273122
      2          6           0        1.680074   -0.664794   -0.513244
      3          1           0        0.826308   -2.181065    0.885060
      4          6           0        1.645498    0.710733   -0.351800
      5          1           0        2.415625   -1.194455   -1.119016
      6          6           0        0.796679    1.261215    0.620974
      7          1           0        2.223118    1.375216   -1.003000
      8          1           0        0.629181    0.810714    1.597391
      9          1           0        0.585247    2.334779    0.576260
     10          6           0       -0.467793   -0.566591    0.516764
     11          1           0       -1.157788   -0.920357    1.292758
     12          8           0       -1.093695    0.343025   -0.298298
     13          8           0       -2.467614   -0.058667   -0.358462
     14          1           0       -2.893133    0.802911   -0.250266
 ---------------------------------------------------------------------
 Rotational constants (GHZ):           5.2375784           2.0641407           1.7283091
 Leave Link  202 at Tue May 20 12:06:38 2025, MaxMem=  3758096384 cpu:               0.1 elap:               0.0
 (Enter /gpfs/fs1/soft/bebop/software/custom-built/gaussian/16-c.02/g16/l301.exe)
 Standard basis: def2SVP (5D, 7F)
 Ernie: Thresh=  0.10000D-02 Tol=  0.10000D-05 Strict=F.
 There are   140 symmetry adapted cartesian basis functions of A   symmetry.
 There are   133 symmetry adapted basis functions of A   symmetry.
   133 basis functions,   224 primitive gaussians,   140 cartesian basis functions
    27 alpha electrons       26 beta electrons
       nuclear repulsion energy       296.5192868314 Hartrees.
 IExCor= 4639 DFT=T Ex+Corr=wB97XD ExCW=0 ScaHFX=  1.000000
 ScaDFX=  1.000000  1.000000  1.000000  1.000000 ScalE2=  1.000000  1.000000
 IRadAn=      5 IRanWt=     -1 IRanGd=            0 ICorTp=0 IEmpDi=121
 HFx  wShort=  0.000000 wLong=  0.200000 cFull=  0.222036 cShort=  0.000000 cLong=  0.777964
 DFx  wShort=  0.000000 wLong=  0.200000 cFull=  0.000000 cShort=  0.000000 cLong=  1.000000
 NAtoms=   14 NActive=   14 NUniq=   14 SFac= 1.00D+00 NAtFMM=   60 NAOKFM=F Big=F
 Integral buffers will be    131072 words long.
 Raffenetti 2 integral format.
 Two-electron integral symmetry is turned on.
 R6Disp:  Grimme-D2 Dispersion energy=       -0.0057716811 Hartrees.
 Nuclear repulsion after empirical dispersion term =      296.5135151503 Hartrees.
 Leave Link  301 at Tue May 20 12:06:38 2025, MaxMem=  3758096384 cpu:               0.3 elap:               0.1
 (Enter /gpfs/fs1/soft/bebop/software/custom-built/gaussian/16-c.02/g16/l302.exe)
 NPDir=0 NMtPBC=     1 NCelOv=     1 NCel=       1 NClECP=     1 NCelD=      1
         NCelK=      1 NCelE2=     1 NClLst=     1 CellRange=     0.0.
 One-electron integrals computed using PRISM.
 One-electron integral symmetry used in STVInt
   1 Symmetry operations used in ECPInt.
 ECPInt:  NShTT=    2016 NPrTT=    7252 LenC2=    2009 LenP2D=    5974.
 LDataN:  DoStor=T MaxTD1= 4 Len=   56
 NBasis=   133 RedAO= T EigKep=  1.06D-03  NBF=   133
 NBsUse=   133 1.00D-06 EigRej= -1.00D+00 NBFU=   133
 Precomputing XC quadrature grid using
 IXCGrd= 4 IRadAn=           5 IRanWt=          -1 IRanGd=           0 AccXCQ= 0.00D+00.
 Generated NRdTot=       0 NPtTot=           0 NUsed=           0 NTot=          32
 NSgBfM=   140   140   140   140   140 MxSgAt=    14 MxSgA2=    14.
 Leave Link  302 at Tue May 20 12:06:38 2025, MaxMem=  3758096384 cpu:               0.8 elap:               0.2
 (Enter /gpfs/fs1/soft/bebop/software/custom-built/gaussian/16-c.02/g16/l303.exe)
 DipDrv:  MaxL=1.
 Leave Link  303 at Tue May 20 12:06:38 2025, MaxMem=  3758096384 cpu:               0.1 elap:               0.0
 (Enter /gpfs/fs1/soft/bebop/software/custom-built/gaussian/16-c.02/g16/l401.exe)
 ExpMin= 1.22D-01 ExpMax= 2.27D+03 ExpMxC= 3.41D+02 IAcc=3 IRadAn=         5 AccDes= 0.00D+00
 Harris functional with IExCor= 4639 and IRadAn=       5 diagonalized for initial guess.
 HarFok:  IExCor= 4639 AccDes= 0.00D+00 IRadAn=         5 IDoV= 1 UseB2=F ITyADJ=14
 ICtDFT=  3500011 ScaDFX=  1.000000  1.000000  1.000000  1.000000
 FoFCou: FMM=F IPFlag=           0 FMFlag=      100000 FMFlg1=           0
         NFxFlg=           0 DoJE=T BraDBF=F KetDBF=T FulRan=T
         wScrn=  0.000000 ICntrl=       500 IOpCl=  0 I1Cent=   200000004 NGrid=           0
         NMat0=    1 NMatS0=      1 NMatT0=    0 NMatD0=    1 NMtDS0=    0 NMtDT0=    0
 Petite list used in FoFCou.
 Harris En= -330.313079347791    
 JPrj=0 DoOrth=F DoCkMO=F.
 Initial guess <Sx>= 0.0000 <Sy>= 0.0000 <Sz>= 0.5000 <S**2>= 0.7500 S= 0.5000
 Leave Link  401 at Tue May 20 12:06:39 2025, MaxMem=  3758096384 cpu:               2.5 elap:               0.4
 (Enter /gpfs/fs1/soft/bebop/software/custom-built/gaussian/16-c.02/g16/l502.exe)
 Keep R1 and R2 ints in memory in canonical form, NReq=165843629.
 FoFCou: FMM=F IPFlag=           0 FMFlag=           0 FMFlg1=           0
         NFxFlg=           0 DoJE=F BraDBF=F KetDBF=F FulRan=T
         wScrn=  0.000000 ICntrl=       600 IOpCl=  0 I1Cent=           0 NGrid=           0
         NMat0=    1 NMatS0=   8911 NMatT0=    0 NMatD0=    1 NMtDS0=    0 NMtDT0=    0
 Symmetry not used in FoFCou.
 Two-electron integral symmetry not used.
 UHF open shell SCF:
 Using DIIS extrapolation, IDIIS=  1040.
 NGot=  3758096384 LenX=  3599224750 LenY=  3599204709
 Requested convergence on RMS density matrix=1.00D-08 within  32 cycles.
 Requested convergence on MAX density matrix=1.00D-06.
 Requested convergence on             energy=1.00D-06.
 No special actions if energy rises.
 Integral accuracy reduced to 1.0D-05 until final iterations.

 Cycle   1  Pass 0  IDiag  1:
 E= -344.367882136915    
 DIIS: error= 2.59D-02 at cycle   1 NSaved=   1.
 NSaved= 1 IEnMin= 1 EnMin= -344.367882136915     IErMin= 1 ErrMin= 2.59D-02
 ErrMax= 2.59D-02  0.00D+00 EMaxC= 1.00D-01 BMatC= 1.23D+00 BMatP= 1.23D+00
 IDIUse=3 WtCom= 7.41D-01 WtEn= 2.59D-01
 Coeff-Com:  0.100D+01
 Coeff-En:   0.100D+01
 Coeff:      0.100D+01
 Gap=     0.191 Goal=   None    Shift=    0.000
 Gap=     0.520 Goal=   None    Shift=    0.000
 GapD=    0.191 DampG=1.000 DampE=0.500 DampFc=0.5000 IDamp=-1.
 Damping current iteration by 5.00D-01
 RMSDP=7.57D-03 MaxDP=1.96D-01              OVMax= 3.18D-01

 Cycle   2  Pass 0  IDiag  1:
 E= -344.442353914695     Delta-E=       -0.074471777780 Rises=F Damp=T
 DIIS: error= 1.33D-02 at cycle   2 NSaved=   2.
 NSaved= 2 IEnMin= 2 EnMin= -344.442353914695     IErMin= 2 ErrMin= 1.33D-02
 ErrMax= 1.33D-02  0.00D+00 EMaxC= 1.00D-01 BMatC= 1.41D-01 BMatP= 1.23D+00
 IDIUse=3 WtCom= 8.67D-01 WtEn= 1.33D-01
 Coeff-Com:  0.257D-01 0.974D+00
 Coeff-En:   0.194D+00 0.806D+00
 Coeff:      0.480D-01 0.952D+00
 Gap=     0.296 Goal=   None    Shift=    0.000
 Gap=     0.485 Goal=   None    Shift=    0.000
 RMSDP=2.10D-03 MaxDP=4.07D-02 DE=-7.45D-02 OVMax= 2.53D-01

 Cycle   3  Pass 0  IDiag  1:
 E= -344.562321621350     Delta-E=       -0.119967706656 Rises=F Damp=F
 DIIS: error= 3.79D-03 at cycle   3 NSaved=   3.
 NSaved= 3 IEnMin= 3 EnMin= -344.562321621350     IErMin= 3 ErrMin= 3.79D-03
 ErrMax= 3.79D-03  0.00D+00 EMaxC= 1.00D-01 BMatC= 2.08D-02 BMatP= 1.41D-01
 IDIUse=3 WtCom= 9.62D-01 WtEn= 3.79D-02
 Coeff-Com: -0.100D+00 0.207D+00 0.893D+00
 Coeff-En:   0.000D+00 0.000D+00 0.100D+01
 Coeff:     -0.963D-01 0.199D+00 0.897D+00
 Gap=     0.261 Goal=   None    Shift=    0.000
 Gap=     0.320 Goal=   None    Shift=    0.000
 RMSDP=7.81D-04 MaxDP=1.59D-02 DE=-1.20D-01 OVMax= 4.86D-02

 Cycle   4  Pass 0  IDiag  1:
 E= -344.568460361715     Delta-E=       -0.006138740364 Rises=F Damp=F
 DIIS: error= 1.64D-03 at cycle   4 NSaved=   4.
 NSaved= 4 IEnMin= 4 EnMin= -344.568460361715     IErMin= 4 ErrMin= 1.64D-03
 ErrMax= 1.64D-03  0.00D+00 EMaxC= 1.00D-01 BMatC= 4.24D-03 BMatP= 2.08D-02
 IDIUse=3 WtCom= 9.84D-01 WtEn= 1.64D-02
 Coeff-Com: -0.502D-01 0.807D-01 0.475D+00 0.494D+00
 Coeff-En:   0.000D+00 0.000D+00 0.000D+00 0.100D+01
 Coeff:     -0.494D-01 0.794D-01 0.467D+00 0.503D+00
 Gap=     0.265 Goal=   None    Shift=    0.000
 Gap=     0.322 Goal=   None    Shift=    0.000
 RMSDP=2.62D-04 MaxDP=5.51D-03 DE=-6.14D-03 OVMax= 1.09D-02

 Cycle   5  Pass 0  IDiag  1:
 E= -344.569687540182     Delta-E=       -0.001227178467 Rises=F Damp=F
 DIIS: error= 8.66D-04 at cycle   5 NSaved=   5.
 NSaved= 5 IEnMin= 5 EnMin= -344.569687540182     IErMin= 5 ErrMin= 8.66D-04
 ErrMax= 8.66D-04  0.00D+00 EMaxC= 1.00D-01 BMatC= 4.48D-04 BMatP= 4.24D-03
 IDIUse=3 WtCom= 9.91D-01 WtEn= 8.66D-03
 Coeff-Com:  0.190D-01-0.451D-01-0.173D+00 0.278D-01 0.117D+01
 Coeff-En:   0.000D+00 0.000D+00 0.000D+00 0.000D+00 0.100D+01
 Coeff:      0.188D-01-0.447D-01-0.171D+00 0.275D-01 0.117D+01
 Gap=     0.271 Goal=   None    Shift=    0.000
 Gap=     0.326 Goal=   None    Shift=    0.000
 RMSDP=3.36D-04 MaxDP=6.94D-03 DE=-1.23D-03 OVMax= 2.39D-02

 Cycle   6  Pass 0  IDiag  1:
 E= -344.570403112366     Delta-E=       -0.000715572185 Rises=F Damp=F
 DIIS: error= 4.86D-04 at cycle   6 NSaved=   6.
 NSaved= 6 IEnMin= 6 EnMin= -344.570403112366     IErMin= 6 ErrMin= 4.86D-04
 ErrMax= 4.86D-04  0.00D+00 EMaxC= 1.00D-01 BMatC= 1.34D-04 BMatP= 4.48D-04
 IDIUse=3 WtCom= 9.95D-01 WtEn= 4.86D-03
 Coeff-Com:  0.162D-01-0.288D-01-0.133D+00-0.124D+00 0.229D+00 0.104D+01
 Coeff-En:   0.000D+00 0.000D+00 0.000D+00 0.000D+00 0.000D+00 0.100D+01
 Coeff:      0.161D-01-0.286D-01-0.132D+00-0.124D+00 0.228D+00 0.104D+01
 Gap=     0.273 Goal=   None    Shift=    0.000
 Gap=     0.328 Goal=   None    Shift=    0.000
 RMSDP=1.99D-04 MaxDP=3.54D-03 DE=-7.16D-04 OVMax= 1.38D-02

 Cycle   7  Pass 0  IDiag  1:
 E= -344.570606910192     Delta-E=       -0.000203797825 Rises=F Damp=F
 DIIS: error= 2.75D-04 at cycle   7 NSaved=   7.
 NSaved= 7 IEnMin= 7 EnMin= -344.570606910192     IErMin= 7 ErrMin= 2.75D-04
 ErrMax= 2.75D-04  0.00D+00 EMaxC= 1.00D-01 BMatC= 5.00D-05 BMatP= 1.34D-04
 IDIUse=3 WtCom= 9.97D-01 WtEn= 2.75D-03
 Coeff-Com: -0.107D-04 0.261D-02 0.108D-01-0.375D-01-0.202D+00 0.390D+00
 Coeff-Com:  0.836D+00
 Coeff-En:   0.000D+00 0.000D+00 0.000D+00 0.000D+00 0.000D+00 0.000D+00
 Coeff-En:   0.100D+01
 Coeff:     -0.106D-04 0.260D-02 0.107D-01-0.374D-01-0.201D+00 0.389D+00
 Coeff:      0.836D+00
 Gap=     0.274 Goal=   None    Shift=    0.000
 Gap=     0.328 Goal=   None    Shift=    0.000
 RMSDP=8.30D-05 MaxDP=1.58D-03 DE=-2.04D-04 OVMax= 6.21D-03

 Cycle   8  Pass 0  IDiag  1:
 E= -344.570659425644     Delta-E=       -0.000052515452 Rises=F Damp=F
 DIIS: error= 1.38D-04 at cycle   8 NSaved=   8.
 NSaved= 8 IEnMin= 8 EnMin= -344.570659425644     IErMin= 8 ErrMin= 1.38D-04
 ErrMax= 1.38D-04  0.00D+00 EMaxC= 1.00D-01 BMatC= 1.35D-05 BMatP= 5.00D-05
 IDIUse=3 WtCom= 9.99D-01 WtEn= 1.38D-03
 Coeff-Com: -0.666D-02 0.126D-01 0.551D-01 0.346D-01-0.154D+00-0.271D+00
 Coeff-Com:  0.199D+00 0.113D+01
 Coeff-En:   0.000D+00 0.000D+00 0.000D+00 0.000D+00 0.000D+00 0.000D+00
 Coeff-En:   0.000D+00 0.100D+01
 Coeff:     -0.665D-02 0.126D-01 0.550D-01 0.346D-01-0.154D+00-0.271D+00
 Coeff:      0.199D+00 0.113D+01
 Gap=     0.274 Goal=   None    Shift=    0.000
 Gap=     0.328 Goal=   None    Shift=    0.000
 RMSDP=7.64D-05 MaxDP=1.38D-03 DE=-5.25D-05 OVMax= 5.54D-03

 Cycle   9  Pass 0  IDiag  1:
 E= -344.570687840779     Delta-E=       -0.000028415135 Rises=F Damp=F
 DIIS: error= 7.37D-05 at cycle   9 NSaved=   9.
 NSaved= 9 IEnMin= 9 EnMin= -344.570687840779     IErMin= 9 ErrMin= 7.37D-05
 ErrMax= 7.37D-05  0.00D+00 EMaxC= 1.00D-01 BMatC= 4.18D-06 BMatP= 1.35D-05
 IDIUse=1 WtCom= 1.00D+00 WtEn= 0.00D+00
 Coeff-Com: -0.150D-02 0.263D-02 0.610D-02 0.696D-02 0.593D-02-0.124D+00
 Coeff-Com: -0.119D+00 0.235D+00 0.987D+00
 Coeff:     -0.150D-02 0.263D-02 0.610D-02 0.696D-02 0.593D-02-0.124D+00
 Coeff:     -0.119D+00 0.235D+00 0.987D+00
 Gap=     0.274 Goal=   None    Shift=    0.000
 Gap=     0.329 Goal=   None    Shift=    0.000
 RMSDP=3.78D-05 MaxDP=6.46D-04 DE=-2.84D-05 OVMax= 2.99D-03

 Failed to achieve initial convergence to 1.0D-08 in 10 cycles.
 Switch to full accuracy anyway.
 Cycle  10  Pass 1  IDiag  1:
 E= -344.570693319063     Delta-E=       -0.000005478284 Rises=F Damp=F
 DIIS: error= 5.46D-05 at cycle   1 NSaved=   1.
 NSaved= 1 IEnMin= 1 EnMin= -344.570693319063     IErMin= 1 ErrMin= 5.46D-05
 ErrMax= 5.46D-05  0.00D+00 EMaxC= 1.00D-01 BMatC= 2.27D-06 BMatP= 2.27D-06
 IDIUse=1 WtCom= 1.00D+00 WtEn= 0.00D+00
 Coeff-Com:  0.100D+01
 Coeff:      0.100D+01
 Gap=     0.274 Goal=   None    Shift=    0.000
 Gap=     0.328 Goal=   None    Shift=    0.000
 RMSDP=3.78D-05 MaxDP=6.46D-04 DE=-5.48D-06 OVMax= 1.28D-03

 Cycle  11  Pass 1  IDiag  1:
 E= -344.570696486673     Delta-E=       -0.000003167610 Rises=F Damp=F
 DIIS: error= 4.93D-05 at cycle   2 NSaved=   2.
 NSaved= 2 IEnMin= 2 EnMin= -344.570696486673     IErMin= 2 ErrMin= 4.93D-05
 ErrMax= 4.93D-05  0.00D+00 EMaxC= 1.00D-01 BMatC= 1.21D-06 BMatP= 2.27D-06
 IDIUse=1 WtCom= 1.00D+00 WtEn= 0.00D+00
 Coeff-Com:  0.119D+00 0.881D+00
 Coeff:      0.119D+00 0.881D+00
 Gap=     0.274 Goal=   None    Shift=    0.000
 Gap=     0.329 Goal=   None    Shift=    0.000
 RMSDP=1.20D-05 MaxDP=2.19D-04 DE=-3.17D-06 OVMax= 1.00D-03

 Cycle  12  Pass 1  IDiag  1:
 E= -344.570698311697     Delta-E=       -0.000001825024 Rises=F Damp=F
 DIIS: error= 3.84D-05 at cycle   3 NSaved=   3.
 NSaved= 3 IEnMin= 3 EnMin= -344.570698311697     IErMin= 3 ErrMin= 3.84D-05
 ErrMax= 3.84D-05  0.00D+00 EMaxC= 1.00D-01 BMatC= 8.43D-07 BMatP= 1.21D-06
 IDIUse=1 WtCom= 1.00D+00 WtEn= 0.00D+00
 Coeff-Com: -0.513D+00 0.270D+00 0.124D+01
 Coeff:     -0.513D+00 0.270D+00 0.124D+01
 Gap=     0.274 Goal=   None    Shift=    0.000
 Gap=     0.329 Goal=   None    Shift=    0.000
 RMSDP=2.04D-05 MaxDP=4.38D-04 DE=-1.83D-06 OVMax= 1.74D-03

 Cycle  13  Pass 1  IDiag  1:
 E= -344.570700756825     Delta-E=       -0.000002445128 Rises=F Damp=F
 DIIS: error= 2.85D-05 at cycle   4 NSaved=   4.
 NSaved= 4 IEnMin= 4 EnMin= -344.570700756825     IErMin= 4 ErrMin= 2.85D-05
 ErrMax= 2.85D-05  0.00D+00 EMaxC= 1.00D-01 BMatC= 3.95D-07 BMatP= 8.43D-07
 IDIUse=1 WtCom= 1.00D+00 WtEn= 0.00D+00
 Coeff-Com: -0.183D+00-0.501D+00 0.228D+00 0.146D+01
 Coeff:     -0.183D+00-0.501D+00 0.228D+00 0.146D+01
 Gap=     0.274 Goal=   None    Shift=    0.000
 Gap=     0.329 Goal=   None    Shift=    0.000
 RMSDP=2.41D-05 MaxDP=4.81D-04 DE=-2.45D-06 OVMax= 2.11D-03

 Cycle  14  Pass 1  IDiag  1:
 E= -344.570702477855     Delta-E=       -0.000001721029 Rises=F Damp=F
 DIIS: error= 1.40D-05 at cycle   5 NSaved=   5.
 NSaved= 5 IEnMin= 5 EnMin= -344.570702477855     IErMin= 5 ErrMin= 1.40D-05
 ErrMax= 1.40D-05  0.00D+00 EMaxC= 1.00D-01 BMatC= 1.58D-07 BMatP= 3.95D-07
 IDIUse=1 WtCom= 1.00D+00 WtEn= 0.00D+00
 Coeff-Com:  0.166D+00-0.463D+00-0.535D+00 0.894D+00 0.938D+00
 Coeff:      0.166D+00-0.463D+00-0.535D+00 0.894D+00 0.938D+00
 Gap=     0.274 Goal=   None    Shift=    0.000
 Gap=     0.329 Goal=   None    Shift=    0.000
 RMSDP=1.70D-05 MaxDP=3.70D-04 DE=-1.72D-06 OVMax= 1.56D-03

 Cycle  15  Pass 1  IDiag  1:
 E= -344.570702950427     Delta-E=       -0.000000472572 Rises=F Damp=F
 DIIS: error= 3.41D-06 at cycle   6 NSaved=   6.
 NSaved= 6 IEnMin= 6 EnMin= -344.570702950427     IErMin= 6 ErrMin= 3.41D-06
 ErrMax= 3.41D-06  0.00D+00 EMaxC= 1.00D-01 BMatC= 2.20D-08 BMatP= 1.58D-07
 IDIUse=1 WtCom= 1.00D+00 WtEn= 0.00D+00
 Coeff-Com:  0.806D-01-0.124D+00-0.229D+00 0.174D+00 0.409D+00 0.689D+00
 Coeff:      0.806D-01-0.124D+00-0.229D+00 0.174D+00 0.409D+00 0.689D+00
 Gap=     0.274 Goal=   None    Shift=    0.000
 Gap=     0.329 Goal=   None    Shift=    0.000
 RMSDP=2.56D-06 MaxDP=5.05D-05 DE=-4.73D-07 OVMax= 2.45D-04

 Cycle  16  Pass 1  IDiag  1:
 E= -344.570702972181     Delta-E=       -0.000000021754 Rises=F Damp=F
 DIIS: error= 2.33D-06 at cycle   7 NSaved=   7.
 NSaved= 7 IEnMin= 7 EnMin= -344.570702972181     IErMin= 7 ErrMin= 2.33D-06
 ErrMax= 2.33D-06  0.00D+00 EMaxC= 1.00D-01 BMatC= 5.11D-09 BMatP= 2.20D-08
 IDIUse=1 WtCom= 1.00D+00 WtEn= 0.00D+00
 Coeff-Com: -0.318D-01 0.138D+00 0.123D+00-0.315D+00-0.173D+00 0.223D+00
 Coeff-Com:  0.104D+01
 Coeff:     -0.318D-01 0.138D+00 0.123D+00-0.315D+00-0.173D+00 0.223D+00
 Coeff:      0.104D+01
 Gap=     0.274 Goal=   None    Shift=    0.000
 Gap=     0.329 Goal=   None    Shift=    0.000
 RMSDP=1.98D-06 MaxDP=3.27D-05 DE=-2.18D-08 OVMax= 1.91D-04

 Cycle  17  Pass 1  IDiag  1:
 E= -344.570702980852     Delta-E=       -0.000000008671 Rises=F Damp=F
 DIIS: error= 1.21D-06 at cycle   8 NSaved=   8.
 NSaved= 8 IEnMin= 8 EnMin= -344.570702980852     IErMin= 8 ErrMin= 1.21D-06
 ErrMax= 1.21D-06  0.00D+00 EMaxC= 1.00D-01 BMatC= 7.86D-10 BMatP= 5.11D-09
 IDIUse=1 WtCom= 1.00D+00 WtEn= 0.00D+00
 Coeff-Com: -0.227D-01 0.583D-01 0.715D-01-0.118D+00-0.102D+00-0.654D-01
 Coeff-Com:  0.262D+00 0.916D+00
 Coeff:     -0.227D-01 0.583D-01 0.715D-01-0.118D+00-0.102D+00-0.654D-01
 Coeff:      0.262D+00 0.916D+00
 Gap=     0.274 Goal=   None    Shift=    0.000
 Gap=     0.329 Goal=   None    Shift=    0.000
 RMSDP=6.71D-07 MaxDP=1.20D-05 DE=-8.67D-09 OVMax= 6.48D-05

 Cycle  18  Pass 1  IDiag  1:
 E= -344.570702982205     Delta-E=       -0.000000001353 Rises=F Damp=F
 DIIS: error= 5.88D-07 at cycle   9 NSaved=   9.
 NSaved= 9 IEnMin= 9 EnMin= -344.570702982205     IErMin= 9 ErrMin= 5.88D-07
 ErrMax= 5.88D-07  0.00D+00 EMaxC= 1.00D-01 BMatC= 2.58D-10 BMatP= 7.86D-10
 IDIUse=1 WtCom= 1.00D+00 WtEn= 0.00D+00
 Coeff-Com:  0.282D-02-0.184D-01-0.155D-01 0.461D-01 0.232D-01-0.770D-01
 Coeff-Com: -0.205D+00 0.254D+00 0.989D+00
 Coeff:      0.282D-02-0.184D-01-0.155D-01 0.461D-01 0.232D-01-0.770D-01
 Coeff:     -0.205D+00 0.254D+00 0.989D+00
 Gap=     0.274 Goal=   None    Shift=    0.000
 Gap=     0.329 Goal=   None    Shift=    0.000
 RMSDP=4.09D-07 MaxDP=9.11D-06 DE=-1.35D-09 OVMax= 3.78D-05

 Cycle  19  Pass 1  IDiag  1:
 E= -344.570702982620     Delta-E=       -0.000000000416 Rises=F Damp=F
 DIIS: error= 3.10D-07 at cycle  10 NSaved=  10.
 NSaved=10 IEnMin=10 EnMin= -344.570702982620     IErMin=10 ErrMin= 3.10D-07
 ErrMax= 3.10D-07  0.00D+00 EMaxC= 1.00D-01 BMatC= 4.44D-11 BMatP= 2.58D-10
 IDIUse=1 WtCom= 1.00D+00 WtEn= 0.00D+00
 Coeff-Com:  0.675D-02-0.178D-01-0.240D-01 0.380D-01 0.352D-01 0.141D-01
 Coeff-Com: -0.881D-01-0.206D+00 0.627D-02 0.124D+01
 Coeff:      0.675D-02-0.178D-01-0.240D-01 0.380D-01 0.352D-01 0.141D-01
 Coeff:     -0.881D-01-0.206D+00 0.627D-02 0.124D+01
 Gap=     0.274 Goal=   None    Shift=    0.000
 Gap=     0.329 Goal=   None    Shift=    0.000
 RMSDP=1.92D-07 MaxDP=3.99D-06 DE=-4.16D-10 OVMax= 1.79D-05

 Cycle  20  Pass 1  IDiag  1:
 E= -344.570702982723     Delta-E=       -0.000000000103 Rises=F Damp=F
 DIIS: error= 1.16D-07 at cycle  11 NSaved=  11.
 NSaved=11 IEnMin=11 EnMin= -344.570702982723     IErMin=11 ErrMin= 1.16D-07
 ErrMax= 1.16D-07  0.00D+00 EMaxC= 1.00D-01 BMatC= 8.12D-12 BMatP= 4.44D-11
 IDIUse=1 WtCom= 1.00D+00 WtEn= 0.00D+00
 Coeff-Com: -0.562D-03 0.386D-02 0.288D-02-0.884D-02-0.489D-02 0.123D-01
 Coeff-Com:  0.383D-01-0.347D-01-0.210D+00-0.198D-01 0.122D+01
 Coeff:     -0.562D-03 0.386D-02 0.288D-02-0.884D-02-0.489D-02 0.123D-01
 Coeff:      0.383D-01-0.347D-01-0.210D+00-0.198D-01 0.122D+01
 Gap=     0.274 Goal=   None    Shift=    0.000
 Gap=     0.329 Goal=   None    Shift=    0.000
 RMSDP=7.75D-08 MaxDP=1.62D-06 DE=-1.03D-10 OVMax= 6.47D-06

 Cycle  21  Pass 1  IDiag  1:
 E= -344.570702982740     Delta-E=       -0.000000000017 Rises=F Damp=F
 DIIS: error= 5.45D-08 at cycle  12 NSaved=  12.
 NSaved=12 IEnMin=12 EnMin= -344.570702982740     IErMin=12 ErrMin= 5.45D-08
 ErrMax= 5.45D-08  0.00D+00 EMaxC= 1.00D-01 BMatC= 1.86D-12 BMatP= 8.12D-12
 IDIUse=1 WtCom= 1.00D+00 WtEn= 0.00D+00
 Coeff-Com: -0.122D-02 0.391D-02 0.470D-02-0.864D-02-0.726D-02 0.201D-02
 Coeff-Com:  0.266D-01 0.220D-01-0.644D-01-0.222D+00 0.378D+00 0.867D+00
 Coeff:     -0.122D-02 0.391D-02 0.470D-02-0.864D-02-0.726D-02 0.201D-02
 Coeff:      0.266D-01 0.220D-01-0.644D-01-0.222D+00 0.378D+00 0.867D+00
 Gap=     0.274 Goal=   None    Shift=    0.000
 Gap=     0.329 Goal=   None    Shift=    0.000
 RMSDP=2.22D-08 MaxDP=3.04D-07 DE=-1.71D-11 OVMax= 1.63D-06

 Cycle  22  Pass 1  IDiag  1:
 E= -344.570702982743     Delta-E=       -0.000000000003 Rises=F Damp=F
 DIIS: error= 2.56D-08 at cycle  13 NSaved=  13.
 NSaved=13 IEnMin=13 EnMin= -344.570702982743     IErMin=13 ErrMin= 2.56D-08
 ErrMax= 2.56D-08  0.00D+00 EMaxC= 1.00D-01 BMatC= 3.94D-13 BMatP= 1.86D-12
 IDIUse=1 WtCom= 1.00D+00 WtEn= 0.00D+00
 Coeff-Com: -0.779D-04-0.240D-03 0.262D-03 0.503D-03-0.385D-03-0.210D-02
 Coeff-Com: -0.383D-02 0.964D-02 0.410D-01-0.371D-01-0.200D+00 0.181D+00
 Coeff-Com:  0.101D+01
 Coeff:     -0.779D-04-0.240D-03 0.262D-03 0.503D-03-0.385D-03-0.210D-02
 Coeff:     -0.383D-02 0.964D-02 0.410D-01-0.371D-01-0.200D+00 0.181D+00
 Coeff:      0.101D+01
 Gap=     0.274 Goal=   None    Shift=    0.000
 Gap=     0.329 Goal=   None    Shift=    0.000
 RMSDP=9.44D-09 MaxDP=2.01D-07 DE=-2.73D-12 OVMax= 5.97D-07

 SCF Done:  E(UwB97XD) =  -344.570702983     A.U. after   22 cycles
            NFock= 22  Conv=0.94D-08     -V/T= 2.0083
 <Sx>= 0.0000 <Sy>= 0.0000 <Sz>= 0.5000 <S**2>= 0.7847 S= 0.5172
 <L.S>=  0.00000000000    
 KE= 3.417382815051D+02 PE=-1.397746242235D+03 EE= 4.149237425971D+02
 Annihilation of the first spin contaminant:
 S**2 before annihilation     0.7847,   after     0.7504
 Leave Link  502 at Tue May 20 12:06:51 2025, MaxMem=  3758096384 cpu:              61.8 elap:              12.3
 (Enter /gpfs/fs1/soft/bebop/software/custom-built/gaussian/16-c.02/g16/l508.exe)
 QCSCF skips out because SCF is already converged.
 Leave Link  508 at Tue May 20 12:06:51 2025, MaxMem=  3758096384 cpu:               0.0 elap:               0.0
 (Enter /gpfs/fs1/soft/bebop/software/custom-built/gaussian/16-c.02/g16/l601.exe)
 Copying SCF densities to generalized density rwf, IOpCl= 1 IROHF=0.

 **********************************************************************

            Population analysis using the SCF Density.

 **********************************************************************

 Orbital symmetries:
 Alpha Orbitals:
       Occupied  (A) (A) (A) (A) (A) (A) (A) (A) (A) (A) (A) (A)
                 (A) (A) (A) (A) (A) (A) (A) (A) (A) (A) (A) (A)
                 (A) (A) (A)
       Virtual   (A) (A) (A) (A) (A) (A) (A) (A) (A) (A) (A) (A)
                 (A) (A) (A) (A) (A) (A) (A) (A) (A) (A) (A) (A)
                 (A) (A) (A) (A) (A) (A) (A) (A) (A) (A) (A) (A)
                 (A) (A) (A) (A) (A) (A) (A) (A) (A) (A) (A) (A)
                 (A) (A) (A) (A) (A) (A) (A) (A) (A) (A) (A) (A)
                 (A) (A) (A) (A) (A) (A) (A) (A) (A) (A) (A) (A)
                 (A) (A) (A) (A) (A) (A) (A) (A) (A) (A) (A) (A)
                 (A) (A) (A) (A) (A) (A) (A) (A) (A) (A) (A) (A)
                 (A) (A) (A) (A) (A) (A) (A) (A) (A) (A)
 Beta  Orbitals:
       Occupied  (A) (A) (A) (A) (A) (A) (A) (A) (A) (A) (A) (A)
                 (A) (A) (A) (A) (A) (A) (A) (A) (A) (A) (A) (A)
                 (A) (A)
       Virtual   (A) (A) (A) (A) (A) (A) (A) (A) (A) (A) (A) (A)
                 (A) (A) (A) (A) (A) (A) (A) (A) (A) (A) (A) (A)
                 (A) (A) (A) (A) (A) (A) (A) (A) (A) (A) (A) (A)
                 (A) (A) (A) (A) (A) (A) (A) (A) (A) (A) (A) (A)
                 (A) (A) (A) (A) (A) (A) (A) (A) (A) (A) (A) (A)
                 (A) (A) (A) (A) (A) (A) (A) (A) (A) (A) (A) (A)
                 (A) (A) (A) (A) (A) (A) (A) (A) (A) (A) (A) (A)
                 (A) (A) (A) (A) (A) (A) (A) (A) (A) (A) (A) (A)
                 (A) (A) (A) (A) (A) (A) (A) (A) (A) (A) (A)
 The electronic state is 2-A.
 Alpha  occ. eigenvalues --  -19.33484 -19.31754 -10.36151 -10.30391 -10.29729
 Alpha  occ. eigenvalues --  -10.29524 -10.29317  -1.24094  -1.02884  -0.92098
 Alpha  occ. eigenvalues --   -0.82554  -0.77059  -0.67265  -0.65143  -0.62058
 Alpha  occ. eigenvalues --   -0.59287  -0.57362  -0.54380  -0.50655  -0.48053
 Alpha  occ. eigenvalues --   -0.46746  -0.45079  -0.43912  -0.38715  -0.38460
 Alpha  occ. eigenvalues --   -0.32510  -0.23338
 Alpha virt. eigenvalues --    0.04090   0.11640   0.14140   0.14883   0.16813
 Alpha virt. eigenvalues --    0.18005   0.19748   0.22071   0.22525   0.24707
 Alpha virt. eigenvalues --    0.29121   0.35135   0.39175   0.44280   0.46004
 Alpha virt. eigenvalues --    0.47975   0.51786   0.52623   0.55061   0.56932
 Alpha virt. eigenvalues --    0.58420   0.60488   0.63762   0.64509   0.67144
 Alpha virt. eigenvalues --    0.67758   0.71560   0.71854   0.73117   0.73786
 Alpha virt. eigenvalues --    0.75085   0.76332   0.78922   0.80250   0.83508
 Alpha virt. eigenvalues --    0.85298   0.86540   0.90303   0.90611   0.97839
 Alpha virt. eigenvalues --    1.01841   1.03502   1.08163   1.11963   1.19024
 Alpha virt. eigenvalues --    1.19560   1.22052   1.29083   1.33901   1.36712
 Alpha virt. eigenvalues --    1.41423   1.45707   1.48454   1.51187   1.59856
 Alpha virt. eigenvalues --    1.67311   1.69258   1.70986   1.71848   1.73976
 Alpha virt. eigenvalues --    1.76726   1.78035   1.82158   1.83055   1.86684
 Alpha virt. eigenvalues --    1.88611   1.91366   1.93857   1.95658   2.00574
 Alpha virt. eigenvalues --    2.03550   2.05435   2.10342   2.11654   2.17360
 Alpha virt. eigenvalues --    2.18266   2.24308   2.26695   2.27455   2.29770
 Alpha virt. eigenvalues --    2.38896   2.42911   2.46474   2.48321   2.52114
 Alpha virt. eigenvalues --    2.53235   2.55550   2.60000   2.64659   2.71861
 Alpha virt. eigenvalues --    2.78735   2.84077   2.86130   2.86553   2.93013
 Alpha virt. eigenvalues --    3.02191   3.03079   3.06636   3.14226   3.18109
 Alpha virt. eigenvalues --    3.23097   3.36055   3.43272   3.56410   3.65476
 Alpha virt. eigenvalues --    3.96572
  Beta  occ. eigenvalues --  -19.33413 -19.31718 -10.35955 -10.30676 -10.29570
  Beta  occ. eigenvalues --  -10.29176 -10.28429  -1.23949  -1.02599  -0.91340
  Beta  occ. eigenvalues --   -0.81814  -0.75158  -0.66732  -0.64775  -0.61393
  Beta  occ. eigenvalues --   -0.59059  -0.56907  -0.53836  -0.50049  -0.47669
  Beta  occ. eigenvalues --   -0.46006  -0.44535  -0.43534  -0.38064  -0.36097
  Beta  occ. eigenvalues --   -0.31145
  Beta virt. eigenvalues --    0.01720   0.04159   0.12570   0.14609   0.16562
  Beta virt. eigenvalues --    0.17339   0.18447   0.20719   0.22453   0.22808
  Beta virt. eigenvalues --    0.24997   0.29583   0.35510   0.39360   0.44746
  Beta virt. eigenvalues --    0.46213   0.48342   0.52412   0.52933   0.55577
  Beta virt. eigenvalues --    0.57552   0.59230   0.61327   0.64191   0.65685
  Beta virt. eigenvalues --    0.67057   0.68435   0.72256   0.72564   0.73941
  Beta virt. eigenvalues --    0.74422   0.75519   0.76905   0.79726   0.80600
  Beta virt. eigenvalues --    0.83908   0.85554   0.87032   0.90865   0.91096
  Beta virt. eigenvalues --    0.98102   1.01959   1.03712   1.08456   1.12232
  Beta virt. eigenvalues --    1.19407   1.19788   1.22536   1.29568   1.34979
  Beta virt. eigenvalues --    1.36988   1.41698   1.46257   1.48765   1.51436
  Beta virt. eigenvalues --    1.60334   1.67452   1.69618   1.71328   1.72144
  Beta virt. eigenvalues --    1.74247   1.77101   1.78590   1.82853   1.83634
  Beta virt. eigenvalues --    1.87069   1.88842   1.92227   1.94489   1.96904
  Beta virt. eigenvalues --    2.01350   2.04090   2.06029   2.10697   2.12420
  Beta virt. eigenvalues --    2.18089   2.18750   2.25672   2.27189   2.27781
  Beta virt. eigenvalues --    2.31278   2.39930   2.43791   2.47274   2.48790
  Beta virt. eigenvalues --    2.52595   2.53513   2.56370   2.61054   2.65400
  Beta virt. eigenvalues --    2.72192   2.79265   2.84472   2.86709   2.86930
  Beta virt. eigenvalues --    2.93952   3.02222   3.03683   3.07018   3.14636
  Beta virt. eigenvalues --    3.18328   3.23525   3.36298   3.43515   3.56751
  Beta virt. eigenvalues --    3.65532   3.96675
          Condensed to atoms (all electrons):
               1          2          3          4          5          6
     1  C    5.045674   0.340152   0.404490  -0.054328  -0.047881  -0.087804
     2  C    0.340152   4.977355  -0.046112   0.500406   0.426165  -0.059492
     3  H    0.404490  -0.046112   0.627715   0.005598  -0.002092  -0.000205
     4  C   -0.054328   0.500406   0.005598   4.820720  -0.048752   0.476033
     5  H   -0.047881   0.426165  -0.002092  -0.048752   0.632448   0.009811
     6  C   -0.087804  -0.059492  -0.000205   0.476033   0.009811   5.101917
     7  H    0.009069  -0.045436  -0.000300   0.420108  -0.007740  -0.048740
     8  H   -0.009532  -0.022608   0.000611   0.001063  -0.000336   0.368374
     9  H    0.003799   0.009664  -0.000037  -0.024291  -0.000169   0.378907
    10  C    0.521067  -0.050468  -0.024473  -0.037596   0.008237  -0.015377
    11  H   -0.042446   0.007987  -0.010917   0.003556  -0.000259  -0.006424
    12  O   -0.045845  -0.002383   0.002792  -0.004650   0.000014  -0.043549
    13  O    0.002314  -0.000632  -0.000059   0.000380   0.000013   0.004661
    14  H   -0.000246   0.000052   0.000000   0.000032  -0.000002  -0.000766
               7          8          9         10         11         12
     1  C    0.009069  -0.009532   0.003799   0.521067  -0.042446  -0.045845
     2  C   -0.045436  -0.022608   0.009664  -0.050468   0.007987  -0.002383
     3  H   -0.000300   0.000611  -0.000037  -0.024473  -0.010917   0.002792
     4  C    0.420108   0.001063  -0.024291  -0.037596   0.003556  -0.004650
     5  H   -0.007740  -0.000336  -0.000169   0.008237  -0.000259   0.000014
     6  C   -0.048740   0.368374   0.378907  -0.015377  -0.006424  -0.043549
     7  H    0.637825   0.004413  -0.009446   0.003224  -0.000009  -0.000415
     8  H    0.004413   0.599654  -0.035078   0.013726   0.005372  -0.007266
     9  H   -0.009446  -0.035078   0.638141   0.000050  -0.000187   0.000345
    10  C    0.003224   0.013726   0.000050   4.865077   0.395431   0.278284
    11  H   -0.000009   0.005372  -0.000187   0.395431   0.631977  -0.037695
    12  O   -0.000415  -0.007266   0.000345   0.278284  -0.037695   7.986507
    13  O    0.000011   0.000012  -0.000009  -0.052182   0.009115   0.098862
    14  H   -0.000003   0.000118  -0.000020   0.002213   0.002197  -0.017787
              13         14
     1  C    0.002314  -0.000246
     2  C   -0.000632   0.000052
     3  H   -0.000059   0.000000
     4  C    0.000380   0.000032
     5  H    0.000013  -0.000002
     6  C    0.004661  -0.000766
     7  H    0.000011  -0.000003
     8  H    0.000012   0.000118
     9  H   -0.000009  -0.000020
    10  C   -0.052182   0.002213
    11  H    0.009115   0.002197
    12  O    0.098862  -0.017787
    13  O    7.774405   0.311987
    14  H    0.311987   0.503245
          Atomic-Atomic Spin Densities.
               1          2          3          4          5          6
     1  C   -0.017772  -0.065563   0.006315   0.012160   0.000031  -0.036765
     2  C   -0.065563   0.589495  -0.007290   0.006407   0.006305  -0.022858
     3  H    0.006315  -0.007290   0.014181   0.000575  -0.000055  -0.002286
     4  C    0.012160   0.006407   0.000575  -0.261837  -0.000298  -0.033663
     5  H    0.000031   0.006305  -0.000055  -0.000298  -0.028535  -0.000348
     6  C   -0.036765  -0.022858  -0.002286  -0.033663  -0.000348   0.946069
     7  H   -0.000519  -0.004239  -0.000045   0.003883   0.000074  -0.002236
     8  H    0.006971  -0.000614   0.000385   0.001247   0.000016  -0.011529
     9  H    0.000371  -0.000422   0.000027   0.000165   0.000014  -0.002627
    10  C    0.046083  -0.012687  -0.004090   0.001949  -0.000479  -0.066303
    11  H   -0.001752   0.000104   0.000275  -0.000191   0.000012   0.000681
    12  O    0.002000   0.003807   0.000389   0.004946  -0.000002  -0.044774
    13  O    0.000162  -0.000133  -0.000012  -0.000198  -0.000001   0.002446
    14  H   -0.000042  -0.000025  -0.000003   0.000007   0.000000   0.000431
               7          8          9         10         11         12
     1  C   -0.000519   0.006971   0.000371   0.046083  -0.001752   0.002000
     2  C   -0.004239  -0.000614  -0.000422  -0.012687   0.000104   0.003807
     3  H   -0.000045   0.000385   0.000027  -0.004090   0.000275   0.000389
     4  C    0.003883   0.001247   0.000165   0.001949  -0.000191   0.004946
     5  H    0.000074   0.000016   0.000014  -0.000479   0.000012  -0.000002
     6  C   -0.002236  -0.011529  -0.002627  -0.066303   0.000681  -0.044774
     7  H    0.021685  -0.000553  -0.000626  -0.000472   0.000002  -0.000171
     8  H   -0.000553  -0.033014   0.004152   0.005188  -0.000097   0.002116
     9  H   -0.000626   0.004152  -0.033088   0.002059   0.000007   0.000534
    10  C   -0.000472   0.005188   0.002059   0.181048   0.002396  -0.011847
    11  H    0.000002  -0.000097   0.000007   0.002396  -0.009875  -0.000088
    12  O   -0.000171   0.002116   0.000534  -0.011847  -0.000088   0.046535
    13  O    0.000004  -0.000111  -0.000033  -0.000383   0.000414  -0.004571
    14  H    0.000002  -0.000020  -0.000023   0.000421  -0.000046  -0.000854
              13         14
     1  C    0.000162  -0.000042
     2  C   -0.000133  -0.000025
     3  H   -0.000012  -0.000003
     4  C   -0.000198   0.000007
     5  H   -0.000001   0.000000
     6  C    0.002446   0.000431
     7  H    0.000004   0.000002
     8  H   -0.000111  -0.000020
     9  H   -0.000033  -0.000023
    10  C   -0.000383   0.000421
    11  H    0.000414  -0.000046
    12  O   -0.004571  -0.000854
    13  O    0.017798   0.000230
    14  H    0.000230  -0.000332
 Mulliken charges and spin densities:
               1          2
     1  C   -0.038482  -0.048321
     2  C   -0.034651   0.492287
     3  H    0.042991   0.008367
     4  C   -0.058278  -0.264849
     5  H    0.030544  -0.023263
     6  C   -0.077345   0.726239
     7  H    0.037436   0.016789
     8  H    0.081476  -0.025863
     9  H    0.038331  -0.029489
    10  C    0.092788   0.142882
    11  H    0.042300  -0.008157
    12  O   -0.207212  -0.001978
    13  O   -0.148877   0.015611
    14  H    0.198980  -0.000255
 Sum of Mulliken charges =  -0.00000   1.00000
 Mulliken charges and spin densities with hydrogens summed into heavy atoms:
               1          2
     1  C    0.004508  -0.039954
     2  C   -0.004108   0.469024
     4  C   -0.020842  -0.248060
     6  C    0.042462   0.670887
    10  C    0.135089   0.134725
    12  O   -0.207212  -0.001978
    13  O    0.050103   0.015356
 Electronic spatial extent (au):  <R**2>=            733.7779
 Charge=             -0.0000 electrons
 Dipole moment (field-independent basis, Debye):
    X=             -0.5568    Y=              0.9142    Z=              1.1016  Tot=              1.5360
 Quadrupole moment (field-independent basis, Debye-Ang):
   XX=            -37.2977   YY=            -39.0977   ZZ=            -41.3831
   XY=             -4.6871   XZ=             -3.1883   YZ=             -1.6184
 Traceless Quadrupole moment (field-independent basis, Debye-Ang):
   XX=              1.9618   YY=              0.1618   ZZ=             -2.1236
   XY=             -4.6871   XZ=             -3.1883   YZ=             -1.6184
 Octapole moment (field-independent basis, Debye-Ang**2):
  XXX=            -36.0464  YYY=              3.5102  ZZZ=             -0.4026  XYY=             -6.6460
  XXY=             12.7442  XXZ=             -5.7740  XZZ=             -5.2111  YZZ=             -0.1723
  YYZ=             -0.2818  XYZ=              0.6452
 Hexadecapole moment (field-independent basis, Debye-Ang**3):
 XXXX=           -504.9749 YYYY=           -241.4573 ZZZZ=           -114.2367 XXXY=            -48.0877
 XXXZ=            -10.2734 YYYX=            -11.3737 YYYZ=             -8.2498 ZZZX=              1.0743
 ZZZY=             -3.0055 XXYY=           -121.8239 XXZZ=           -112.1738 YYZZ=            -59.1775
 XXYZ=             -6.1729 YYXZ=             -1.7403 ZZXY=             -2.0083
 N-N= 2.965135151503D+02 E-N=-1.397746243147D+03  KE= 3.417382815051D+02
                          Isotropic Fermi Contact Couplings
        Atom                 a.u.       MegaHertz       Gauss      10(-4) cm-1
     1  C(13)             -0.02654     -29.83353     -10.64535      -9.95139
     2  C(13)              0.08846      99.44700      35.48516      33.17195
     3  H(1)               0.00404      18.07225       6.44863       6.02825
     4  C(13)             -0.07348     -82.60119     -29.47416     -27.55279
     5  H(1)              -0.00713     -31.89241     -11.38001     -10.63816
     6  C(13)              0.19900     223.71126      79.82574      74.62204
     7  H(1)               0.00665      29.74195      10.61267       9.92085
     8  H(1)              -0.01020     -45.58469     -16.26575     -15.20541
     9  H(1)              -0.00811     -36.24862     -12.93441     -12.09124
    10  C(13)              0.02550      28.66668      10.22899       9.56218
    11  H(1)              -0.00258     -11.52464      -4.11228      -3.84421
    12  O(17)              0.15865     -96.17361     -34.31713     -32.08006
    13  O(17)             -0.00413       2.50153       0.89261       0.83442
    14  H(1)              -0.00017      -0.76890      -0.27436      -0.25648
 --------------------------------------------------------
       Center         ----  Spin Dipole Couplings  ----
                      3XX-RR        3YY-RR        3ZZ-RR
 --------------------------------------------------------
     1   Atom       -0.009864      0.007019      0.002845
     2   Atom        0.023895     -0.237851      0.213956
     3   Atom       -0.003610      0.008375     -0.004765
     4   Atom       -0.066707      0.101770     -0.035063
     5   Atom        0.011907     -0.016719      0.004812
     6   Atom        0.499363     -0.238973     -0.260390
     7   Atom       -0.002840      0.004288     -0.001449
     8   Atom       -0.020350     -0.026649      0.046999
     9   Atom       -0.008382      0.053248     -0.044866
    10   Atom       -0.048802      0.037896      0.010907
    11   Atom        0.001202     -0.005566      0.004364
    12   Atom       -0.023217     -0.004670      0.027887
    13   Atom        0.046878     -0.013785     -0.033092
    14   Atom        0.004907     -0.000114     -0.004793
 --------------------------------------------------------
                        XY            XZ            YZ
 --------------------------------------------------------
     1   Atom       -0.010491     -0.018822      0.006344
     2   Atom       -0.068805      0.349394     -0.075906
     3   Atom       -0.001851     -0.002593     -0.002449
     4   Atom       -0.007749     -0.155313      0.015987
     5   Atom       -0.027024     -0.010125      0.014974
     6   Atom        0.342637      0.329723      0.122607
     7   Atom       -0.005155     -0.006350      0.006371
     8   Atom        0.011030      0.010775     -0.031584
     9   Atom       -0.008319      0.016327     -0.001159
    10   Atom        0.077648      0.064359      0.117633
    11   Atom        0.010294     -0.011002     -0.001664
    12   Atom       -0.018197      0.003987      0.028633
    13   Atom        0.046628      0.016681      0.005902
    14   Atom       -0.002527      0.001453      0.000447
 --------------------------------------------------------


 ---------------------------------------------------------------------------------
              Anisotropic Spin Dipole Couplings in Principal Axis System
 ---------------------------------------------------------------------------------

       Atom             a.u.   MegaHertz   Gauss  10(-4) cm-1        Axes

              Baa    -0.0242    -3.248    -1.159    -1.083  0.8272  0.1690  0.5360
     1 C(13)  Bbb     0.0002     0.022     0.008     0.007  0.1938  0.8094 -0.5544
              Bcc     0.0240     3.226     1.151     1.076 -0.5275  0.5624  0.6367
 
              Baa    -0.2572   -34.514   -12.315   -11.513  0.4823  0.8477 -0.2211
     2 C(13)  Bbb    -0.2380   -31.942   -11.398   -10.655  0.6357 -0.5123 -0.5774
              Bcc     0.4952    66.455    23.713    22.167  0.6027 -0.1379  0.7859
 
              Baa    -0.0074    -3.969    -1.416    -1.324  0.6119  0.1905  0.7676
     3 H(1)   Bbb    -0.0015    -0.817    -0.292    -0.273  0.7828 -0.0075 -0.6222
              Bcc     0.0090     4.786     1.708     1.597 -0.1128  0.9817 -0.1537
 
              Baa    -0.2071   -27.788    -9.916    -9.269  0.7414 -0.0161  0.6709
     4 C(13)  Bbb     0.0864    11.594     4.137     3.867  0.4593  0.7411 -0.4898
              Bcc     0.1207    16.194     5.778     5.402 -0.4893  0.6713  0.5568
 
              Baa    -0.0346   -18.478    -6.593    -6.164  0.4561  0.8645 -0.2111
     5 H(1)   Bbb    -0.0022    -1.158    -0.413    -0.386  0.5075 -0.0578  0.8597
              Bcc     0.0368    19.636     7.007     6.550  0.7311 -0.4992 -0.4651
 
              Baa    -0.3852   -51.693   -18.445   -17.243 -0.4368  0.3178  0.8416
     6 C(13)  Bbb    -0.3704   -49.705   -17.736   -16.580 -0.1852  0.8837 -0.4298
              Bcc     0.7556   101.398    36.181    33.823  0.8803  0.3436  0.3271
 
              Baa    -0.0086    -4.564    -1.629    -1.523  0.7199 -0.0543  0.6920
     7 H(1)   Bbb    -0.0039    -2.081    -0.743    -0.694  0.5191  0.7039 -0.4848
              Bcc     0.0125     6.646     2.371     2.217 -0.4608  0.7082  0.5349
 
              Baa    -0.0461   -24.619    -8.785    -8.212 -0.4845  0.8099  0.3307
     8 H(1)   Bbb    -0.0131    -6.965    -2.485    -2.323  0.8711  0.4815  0.0969
              Bcc     0.0592    31.584    11.270    10.535  0.0807 -0.3350  0.9388
 
              Baa    -0.0511   -27.286    -9.736    -9.102 -0.3598 -0.0183  0.9329
     9 H(1)   Bbb    -0.0033    -1.774    -0.633    -0.592  0.9225  0.1430  0.3586
              Bcc     0.0545    29.060    10.369     9.693 -0.1400  0.9896 -0.0346
 
              Baa    -0.0965   -12.953    -4.622    -4.321 -0.5530  0.7063 -0.4421
    10 C(13)  Bbb    -0.0895   -12.015    -4.287    -4.008  0.7340  0.1617 -0.6597
              Bcc     0.1861    24.968     8.909     8.328  0.3944  0.6892  0.6078
 
              Baa    -0.0148    -7.875    -2.810    -2.627 -0.6593  0.6803 -0.3201
    11 H(1)   Bbb    -0.0022    -1.183    -0.422    -0.395  0.3210  0.6398  0.6983
              Bcc     0.0170     9.058     3.232     3.022  0.6799  0.3577 -0.6402
 
              Baa    -0.0402     2.911     1.039     0.971  0.7285  0.6153 -0.3012
    12 O(17)  Bbb    -0.0048     0.349     0.125     0.116  0.6792 -0.5913  0.4348
              Bcc     0.0451    -3.260    -1.163    -1.088 -0.0894  0.5214  0.8486
 
              Baa    -0.0407     2.942     1.050     0.981 -0.4803  0.7251  0.4935
    13 O(17)  Bbb    -0.0343     2.485     0.887     0.829  0.1148 -0.5059  0.8549
              Bcc     0.0750    -5.427    -1.936    -1.810  0.8696  0.4673  0.1597
 
              Baa    -0.0052    -2.749    -0.981    -0.917 -0.1844 -0.1783  0.9665
    14 H(1)   Bbb    -0.0009    -0.498    -0.178    -0.166  0.3369  0.9124  0.2326
              Bcc     0.0061     3.247     1.159     1.083  0.9233 -0.3685  0.1082
 

 ---------------------------------------------------------------------------------

 No NMR shielding tensors so no spin-rotation constants.
 Leave Link  601 at Tue May 20 12:06:51 2025, MaxMem=  3758096384 cpu:               0.8 elap:               0.2
 (Enter /gpfs/fs1/soft/bebop/software/custom-built/gaussian/16-c.02/g16/l701.exe)
 ... and contract with generalized density number  0.
 Compute integral first derivatives.
 R6Disp: Adding Grimme-D2 dispersion energy 1st derivatives to the gradient.
   1 Symmetry operations used in ECPInt.
 ECPInt:  NShTT=    2016 NPrTT=    7252 LenC2=    2009 LenP2D=    5974.
 LDataN:  DoStor=T MaxTD1= 5 Len=  102
 Leave Link  701 at Tue May 20 12:06:51 2025, MaxMem=  3758096384 cpu:               0.5 elap:               0.1
 (Enter /gpfs/fs1/soft/bebop/software/custom-built/gaussian/16-c.02/g16/l702.exe)
 L702 exits ... SP integral derivatives will be done elsewhere.
 Leave Link  702 at Tue May 20 12:06:51 2025, MaxMem=  3758096384 cpu:               0.1 elap:               0.0
 (Enter /gpfs/fs1/soft/bebop/software/custom-built/gaussian/16-c.02/g16/l703.exe)
 Integral derivatives from FoFJK, PRISM(SPDF).
 Compute integral first derivatives, UseDBF=F ICtDFT=           0.
 Calling FoFJK, ICntrl=      2127 FMM=F ISym2X=0 I1Cent= 0 IOpClX= 1 NMat=1 NMatS=1 NMatT=0.
 FoFJK:  IHMeth= 1 ICntrl=    2127 DoSepK=T KAlg= 0 I1Cent=           0 FoldK=F
 IRaf=         1 NMat=       1 IRICut=       1 DoRegI=T DoRafI=F ISym2E= 0 IDoP0=0 IntGTp=1.
 FoFCou: FMM=F IPFlag=           0 FMFlag=      100000 FMFlg1=         800
         NFxFlg=           0 DoJE=F BraDBF=F KetDBF=F FulRan=T
         wScrn=  0.000000 ICntrl=      2527 IOpCl=  0 I1Cent=           0 NGrid=           0
         NMat0=    1 NMatS0=      1 NMatT0=    0 NMatD0=    1 NMtDS0=    0 NMtDT0=    0
 Symmetry not used in FoFCou.
 Leave Link  703 at Tue May 20 12:06:53 2025, MaxMem=  3758096384 cpu:              12.8 elap:               2.2
 (Enter /gpfs/fs1/soft/bebop/software/custom-built/gaussian/16-c.02/g16/l716.exe)
 Dipole        =-2.19081116D-01 3.59670901D-01 4.33410530D-01
 ***** Axes restored to original set *****
 -------------------------------------------------------------------
 Center     Atomic                   Forces (Hartrees/Bohr)
 Number     Number              X              Y              Z
 -------------------------------------------------------------------
      1        6          -0.000062941   -0.000101128    0.000510604
      2        6           0.000131528   -0.000001149    0.000244442
      3        1          -0.000121196    0.000024851   -0.000075682
      4        6           0.000169395    0.000156634    0.000068735
      5        1          -0.000039909    0.000012085    0.000034302
      6        6          -0.010789146   -0.040822394    0.046107274
      7        1           0.000023612   -0.000037002    0.000021658
      8        1           0.000014518   -0.000106152    0.000076130
      9        1          -0.000062872    0.000049170   -0.000058230
     10        6           0.011123766    0.040686024   -0.046769287
     11        1          -0.000189879   -0.000151555    0.000011978
     12        8          -0.000094617    0.000172208   -0.000118687
     13        8          -0.000085735    0.000126953   -0.000041118
     14        1          -0.000016523   -0.000008545   -0.000012119
 -------------------------------------------------------------------
 Cartesian Forces:  Max     0.046769287 RMS     0.013693770
 -----------------------------------------------------------------------------------------------
                       Internal Coordinate Forces (Hartree/Bohr or radian)
  Cent   Atom   N1       Length/X         N2         Alpha/Y        N3         Beta/Z          J
 -----------------------------------------------------------------------------------------------
      1  C 
      2  C        1  -0.000478(     1)
      3  H        1  -0.000060(     2)      2   0.000268(    14)
      4  C        2  -0.000420(     3)      1  -0.000749(    15)      3  -0.000026(    26)     0
      5  H        2   0.000002(     4)      1   0.000083(    16)      4   0.000060(    27)     0
      6  C        4   0.000575(     5)      2   0.000973(    17)      1   0.000176(    28)     0
      7  H        4   0.000016(     6)      2   0.000020(    18)      6  -0.000080(    29)     0
      8  H        6  -0.000008(     7)      4   0.000037(    19)      2   0.000118(    30)     0
      9  H        6   0.000009(     8)      4   0.000073(    20)      8   0.000167(    31)     0
     10  C        6   0.063199(     9)      4   0.002612(    21)      8  -0.000272(    32)     0
     11  H       10   0.000015(    10)      6  -0.000385(    22)      4   0.000358(    33)     0
     12  O       10   0.000189(    11)      6   0.000616(    23)     11   0.000096(    34)     0
     13  O       12   0.000138(    12)     10   0.000167(    24)      1  -0.000172(    35)     0
     14  H       13   0.000018(    13)     12   0.000019(    25)     10  -0.000012(    36)     0
 -----------------------------------------------------------------------------------------------
 Internal  Forces:  Max     0.063199101 RMS     0.010546478
 Force constants in internal coordinates: 
                1             2             3             4             5 
      1  0.624780D+00
      2  0.000000D+00  0.344113D+00
      3 -0.526179D-01  0.000000D+00  0.733176D+00
      4  0.000000D+00  0.000000D+00  0.000000D+00  0.347895D+00
      5 -0.239236D+00  0.000000D+00  0.237813D+00  0.000000D+00  0.846289D+00
      6  0.000000D+00  0.000000D+00  0.000000D+00  0.000000D+00  0.000000D+00
      7  0.000000D+00  0.000000D+00  0.000000D+00  0.000000D+00  0.000000D+00
      8  0.000000D+00  0.000000D+00  0.000000D+00  0.000000D+00  0.000000D+00
      9 -0.107582D+00  0.000000D+00 -0.875808D-01  0.000000D+00  0.271470D-01
     10  0.000000D+00  0.000000D+00  0.000000D+00  0.000000D+00  0.000000D+00
     11  0.000000D+00  0.000000D+00  0.000000D+00  0.000000D+00  0.000000D+00
     12  0.000000D+00  0.000000D+00  0.000000D+00  0.000000D+00  0.000000D+00
     13  0.000000D+00  0.000000D+00  0.000000D+00  0.000000D+00  0.000000D+00
     14 -0.517954D-01  0.000000D+00 -0.359216D-01  0.000000D+00  0.212719D-01
     15 -0.259447D+00  0.000000D+00  0.875531D+00  0.000000D+00  0.893586D+00
     16  0.000000D+00  0.000000D+00  0.000000D+00  0.000000D+00  0.000000D+00
     17 -0.889128D+00  0.000000D+00  0.119358D+01  0.000000D+00  0.170365D+01
     18  0.000000D+00  0.000000D+00  0.000000D+00  0.000000D+00  0.000000D+00
     19 -0.475934D-03  0.000000D+00 -0.262090D-04  0.000000D+00  0.512520D-03
     20  0.552042D-03  0.000000D+00  0.304001D-04  0.000000D+00 -0.594479D-03
     21 -0.113799D+01  0.000000D+00  0.869778D+00  0.000000D+00  0.167820D+01
     22  0.332105D-01  0.000000D+00  0.382616D-01  0.000000D+00  0.225131D-02
     23  0.402764D-01  0.000000D+00  0.447701D-01  0.000000D+00  0.102727D-02
     24  0.000000D+00  0.000000D+00  0.000000D+00  0.000000D+00  0.000000D+00
     25  0.000000D+00  0.000000D+00  0.000000D+00  0.000000D+00  0.000000D+00
     26 -0.107776D-01  0.000000D+00  0.473022D-02  0.000000D+00  0.171610D-01
     27  0.000000D+00  0.000000D+00 -0.319318D-02  0.000000D+00 -0.333183D-02
     28  0.121005D+00  0.000000D+00 -0.355397D+00  0.000000D+00 -0.347133D+00
     29  0.000000D+00  0.000000D+00  0.000000D+00  0.000000D+00  0.000000D+00
     30  0.389224D+00  0.000000D+00 -0.736080D+00  0.000000D+00 -0.865353D+00
     31 -0.280619D-03  0.000000D+00 -0.154533D-04  0.000000D+00  0.302192D-03
     32  0.389384D+00  0.000000D+00 -0.736071D+00  0.000000D+00 -0.865525D+00
     33 -0.977899D-01  0.000000D+00 -0.365545D-01  0.000000D+00  0.727845D-01
     34 -0.590856D-01  0.000000D+00 -0.149234D-01  0.000000D+00  0.514513D-01
     35  0.103249D-01  0.000000D+00  0.155657D-01  0.000000D+00  0.452969D-02
     36  0.000000D+00  0.000000D+00  0.000000D+00  0.000000D+00  0.000000D+00
                6             7             8             9            10 
      6  0.342299D+00
      7  0.000000D+00  0.350098D+00
      8  0.000000D+00  0.000000D+00  0.342299D+00
      9  0.000000D+00  0.000000D+00  0.000000D+00  0.171574D+00
     10  0.000000D+00  0.000000D+00  0.000000D+00  0.000000D+00  0.340161D+00
     11  0.000000D+00  0.000000D+00  0.000000D+00  0.000000D+00  0.000000D+00
     12  0.000000D+00  0.000000D+00  0.000000D+00  0.000000D+00  0.000000D+00
     13  0.000000D+00  0.000000D+00  0.000000D+00  0.000000D+00  0.000000D+00
     14  0.000000D+00  0.000000D+00  0.000000D+00  0.423561D-01  0.000000D+00
     15  0.000000D+00  0.000000D+00  0.000000D+00 -0.253873D+00  0.000000D+00
     16  0.000000D+00  0.000000D+00  0.000000D+00  0.000000D+00  0.000000D+00
     17  0.000000D+00  0.000000D+00  0.000000D+00 -0.402550D-01  0.000000D+00
     18  0.000000D+00  0.000000D+00  0.000000D+00  0.000000D+00  0.000000D+00
     19  0.000000D+00  0.000000D+00  0.000000D+00  0.000000D+00  0.000000D+00
     20  0.000000D+00  0.000000D+00  0.000000D+00  0.000000D+00  0.000000D+00
     21  0.000000D+00  0.000000D+00  0.000000D+00  0.272057D+00  0.000000D+00
     22  0.000000D+00  0.000000D+00  0.000000D+00 -0.466642D-01  0.000000D+00
     23  0.000000D+00  0.000000D+00  0.000000D+00 -0.545020D-01  0.000000D+00
     24  0.000000D+00  0.000000D+00  0.000000D+00  0.000000D+00  0.000000D+00
     25  0.000000D+00  0.000000D+00  0.000000D+00  0.000000D+00  0.000000D+00
     26  0.000000D+00  0.000000D+00  0.000000D+00 -0.681878D-02  0.000000D+00
     27  0.000000D+00  0.000000D+00  0.000000D+00  0.408991D-02  0.000000D+00
     28  0.000000D+00  0.000000D+00  0.000000D+00  0.100403D-01  0.000000D+00
     29  0.000000D+00  0.000000D+00  0.000000D+00  0.000000D+00  0.000000D+00
     30  0.000000D+00  0.000000D+00  0.000000D+00  0.282747D-04  0.000000D+00
     31  0.000000D+00  0.000000D+00  0.000000D+00  0.000000D+00  0.000000D+00
     32  0.000000D+00  0.000000D+00  0.000000D+00  0.282747D-04  0.000000D+00
     33  0.000000D+00  0.000000D+00  0.000000D+00  0.399226D-01  0.000000D+00
     34  0.000000D+00  0.000000D+00  0.000000D+00  0.149468D-01  0.000000D+00
     35  0.000000D+00  0.000000D+00  0.000000D+00 -0.192087D-01  0.000000D+00
     36  0.000000D+00  0.000000D+00  0.000000D+00  0.000000D+00  0.000000D+00
               11            12            13            14            15 
     11  0.505182D+00
     12  0.000000D+00  0.406038D+00
     13  0.000000D+00  0.000000D+00  0.539946D+00
     14  0.000000D+00  0.000000D+00  0.000000D+00  0.316134D+00
     15  0.000000D+00  0.000000D+00  0.000000D+00 -0.169306D+00  0.368443D+01
     16  0.000000D+00  0.000000D+00  0.000000D+00  0.000000D+00  0.159725D+00
     17  0.000000D+00  0.000000D+00  0.000000D+00 -0.453566D-01  0.457595D+01
     18  0.000000D+00  0.000000D+00  0.000000D+00  0.000000D+00  0.180798D-05
     19  0.000000D+00  0.000000D+00  0.000000D+00  0.000000D+00  0.394556D-02
     20  0.000000D+00  0.000000D+00  0.000000D+00  0.000000D+00  0.242813D-02
     21  0.000000D+00  0.000000D+00  0.000000D+00  0.102834D+00  0.354552D+01
     22  0.000000D+00  0.000000D+00  0.000000D+00 -0.883751D-02  0.528762D-01
     23  0.000000D+00  0.000000D+00  0.000000D+00  0.103463D-01  0.108702D+00
     24  0.000000D+00  0.000000D+00  0.000000D+00  0.000000D+00  0.000000D+00
     25  0.000000D+00  0.000000D+00  0.000000D+00  0.000000D+00  0.000000D+00
     26  0.000000D+00  0.000000D+00  0.000000D+00  0.845084D-02 -0.830843D-02
     27  0.000000D+00  0.000000D+00  0.000000D+00  0.000000D+00 -0.180227D-01
     28  0.000000D+00  0.000000D+00  0.000000D+00  0.150497D+00 -0.134646D+01
     29  0.000000D+00  0.000000D+00  0.000000D+00  0.000000D+00 -0.762693D-03
     30  0.000000D+00  0.000000D+00  0.000000D+00  0.168182D+00 -0.275471D+01
     31  0.000000D+00  0.000000D+00  0.000000D+00  0.000000D+00 -0.755815D-03
     32  0.000000D+00  0.000000D+00  0.000000D+00  0.168182D+00 -0.275388D+01
     33  0.000000D+00  0.000000D+00  0.000000D+00 -0.243907D-03 -0.743763D-02
     34  0.000000D+00  0.000000D+00  0.000000D+00  0.251541D-02  0.233292D-01
     35  0.000000D+00  0.000000D+00  0.000000D+00  0.000000D+00  0.345763D-01
     36  0.000000D+00  0.000000D+00  0.000000D+00  0.000000D+00  0.000000D+00
               16            17            18            19            20 
     16  0.319776D+00
     17  0.000000D+00  0.820837D+01
     18  0.000000D+00  0.159613D+00  0.319757D+00
     19  0.000000D+00  0.538405D-02  0.000000D+00  0.325042D+00
     20  0.000000D+00  0.763398D-03  0.000000D+00  0.143218D+00  0.356529D+00
     21  0.000000D+00  0.718824D+01  0.000000D+00 -0.229559D-01  0.610815D-01
     22  0.000000D+00  0.394108D-03  0.000000D+00  0.000000D+00  0.000000D+00
     23  0.000000D+00  0.542780D-01  0.000000D+00  0.000000D+00  0.000000D+00
     24  0.000000D+00  0.000000D+00  0.000000D+00  0.000000D+00  0.000000D+00
     25  0.000000D+00  0.000000D+00  0.000000D+00  0.000000D+00  0.000000D+00
     26 -0.137172D-03  0.257932D-01  0.175102D-04  0.536490D-03 -0.304413D-02
     27 -0.302235D-02 -0.175416D-01  0.000000D+00  0.000000D+00  0.000000D+00
     28 -0.288878D-02 -0.180168D+01  0.278440D-04 -0.374207D-03 -0.510251D-02
     29 -0.144439D-02  0.517772D-02  0.287670D-02  0.000000D+00  0.000000D+00
     30  0.000000D+00 -0.414181D+01  0.423235D-02  0.350295D-03 -0.348866D-02
     31  0.000000D+00  0.763560D-03  0.141078D-02 -0.402997D-01  0.107355D-01
     32  0.000000D+00 -0.414257D+01  0.141078D-02 -0.350356D-01 -0.560170D-01
     33  0.000000D+00  0.276736D+00  0.000000D+00 -0.476920D-02  0.553186D-02
     34  0.000000D+00  0.210256D+00  0.000000D+00 -0.238460D-02  0.276593D-02
     35  0.000000D+00  0.267963D-01  0.000000D+00  0.000000D+00  0.000000D+00
     36  0.000000D+00  0.000000D+00  0.000000D+00  0.000000D+00  0.000000D+00
               21            22            23            24            25 
     21  0.788362D+01
     22 -0.125513D+00  0.299974D+00
     23 -0.868297D-01  0.490537D-01  0.460260D+00
     24  0.000000D+00  0.000000D+00  0.000000D+00  0.250000D+00
     25  0.000000D+00  0.000000D+00  0.000000D+00  0.000000D+00  0.160000D+00
     26  0.392840D-01  0.232780D-01 -0.312473D-01  0.000000D+00  0.000000D+00
     27 -0.138215D-01  0.000000D+00  0.000000D+00  0.000000D+00  0.000000D+00
     28 -0.147331D+01  0.506518D-02  0.784301D-01  0.000000D+00  0.000000D+00
     29  0.000000D+00  0.000000D+00  0.000000D+00  0.000000D+00  0.000000D+00
     30 -0.367713D+01  0.202203D-01  0.125798D+00  0.000000D+00  0.000000D+00
     31  0.765940D-01  0.000000D+00  0.000000D+00  0.000000D+00  0.000000D+00
     32 -0.367524D+01  0.202203D-01  0.125798D+00  0.000000D+00  0.000000D+00
     33  0.392438D+00  0.659168D-02 -0.239546D-02  0.000000D+00  0.000000D+00
     34  0.256597D+00  0.325571D-01 -0.800435D-01  0.000000D+00  0.000000D+00
     35 -0.232271D-01  0.218777D-01  0.381991D-01  0.000000D+00  0.000000D+00
     36  0.000000D+00  0.000000D+00  0.000000D+00  0.000000D+00  0.000000D+00
               26            27            28            29            30 
     26  0.139555D+00
     27  0.119402D-01  0.107536D+00
     28  0.959461D-01 -0.735631D-01  0.157479D+01
     29 -0.485950D-03 -0.225961D-01  0.448650D-01  0.137459D+00
     30  0.399022D-01 -0.201511D-01  0.230967D+01 -0.600544D-01  0.420371D+01
     31  0.129512D-02  0.000000D+00  0.183569D-02 -0.200181D-01  0.421844D-01
     32  0.369447D-01 -0.201511D-01  0.230715D+01 -0.200181D-01  0.412207D+01
     33 -0.592532D-03  0.000000D+00  0.253162D+00  0.000000D+00  0.405262D+00
     34 -0.867739D-02  0.000000D+00  0.197926D+00  0.000000D+00  0.316565D+00
     35  0.000000D+00  0.000000D+00  0.312007D-01  0.000000D+00  0.506544D-01
     36  0.000000D+00  0.000000D+00  0.000000D+00  0.000000D+00  0.000000D+00
               31            32            33            34            35 
     31  0.183745D+00
     32 -0.102373D+00  0.432675D+01
     33 -0.281201D-02  0.406864D+00  0.358636D+00
     34 -0.140601D-02  0.317366D+00  0.249508D+00  0.351357D+00
     35  0.000000D+00  0.506544D-01  0.183358D-01  0.170961D-01  0.617063D-01
     36  0.000000D+00  0.000000D+00  0.000000D+00  0.000000D+00  0.000000D+00
               36 
     36  0.862247D-02
 Leave Link  716 at Tue May 20 12:06:53 2025, MaxMem=  3758096384 cpu:               0.2 elap:               0.0
 (Enter /gpfs/fs1/soft/bebop/software/custom-built/gaussian/16-c.02/g16/l103.exe)

 GradGradGradGradGradGradGradGradGradGradGradGradGradGradGradGradGradGrad
 Berny optimization.
 Search for a local minimum.
 Step number   1 out of a maximum of   46
 All quantities printed in internal units (Hartrees-Bohrs-Radians)
 Second derivative matrix not updated -- first step.
 ITU=  0
     Eigenvalues ---    0.00862   0.03465   0.05344   0.05609   0.08558
     Eigenvalues ---    0.09101   0.12833   0.16000   0.18137   0.19811
     Eigenvalues ---    0.21468   0.25000   0.25509   0.28140   0.29767
     Eigenvalues ---    0.30024   0.34016   0.34230   0.34230   0.34411
     Eigenvalues ---    0.34790   0.35010   0.38236   0.40604   0.41036
     Eigenvalues ---    0.45787   0.47975   0.49037   0.50518   0.52207
     Eigenvalues ---    0.53995   0.55380   1.77491   4.35962  24.21459
     Eigenvalues --- 1000.00000
 RFO step:  Lambda=-6.29101098D-06 EMin= 8.62246652D-03
 Linear search not attempted -- first point.
 Variable       Old X    -DE/DX   Delta X   Delta X   Delta X     New X
                                 (Linear)    (Quad)   (Total)
    R1        2.71195  -0.00048   0.00000   0.00037   0.00037   2.71232
    R2        2.06642  -0.00006   0.00000  -0.00017  -0.00017   2.06624
    R3        2.61803  -0.00042   0.00000  -0.00042  -0.00042   2.61761
    R4        2.06018   0.00000   0.00000   0.00001   0.00001   2.06019
    R5        2.65223   0.00058   0.00000   0.00039   0.00039   2.65262
    R6        2.06944   0.00002   0.00000   0.00005   0.00005   2.06948
    R7        2.05659  -0.00001   0.00000  -0.00002  -0.00002   2.05657
[...]
 Alpha  occ. eigenvalues --   -0.29977  -0.25581
 Alpha virt. eigenvalues --    0.07074   0.09525   0.12954   0.15770   0.16228
 Alpha virt. eigenvalues --    0.18637   0.20412   0.21514   0.22731   0.24071
 Alpha virt. eigenvalues --    0.29259   0.33621   0.35473   0.43593   0.47392
 Alpha virt. eigenvalues --    0.47609   0.52126   0.53827   0.55359   0.56880
 Alpha virt. eigenvalues --    0.58917   0.62333   0.62595   0.63985   0.66674
 Alpha virt. eigenvalues --    0.67316   0.69781   0.72262   0.73029   0.73440
 Alpha virt. eigenvalues --    0.75917   0.76907   0.77875   0.80203   0.81949
 Alpha virt. eigenvalues --    0.84558   0.85893   0.86552   0.90274   0.96366
 Alpha virt. eigenvalues --    1.00452   1.06333   1.09720   1.10686   1.15767
 Alpha virt. eigenvalues --    1.20794   1.22464   1.28842   1.31067   1.33732
 Alpha virt. eigenvalues --    1.37235   1.39954   1.50928   1.52186   1.60154
 Alpha virt. eigenvalues --    1.60874   1.64144   1.65726   1.71514   1.74038
 Alpha virt. eigenvalues --    1.77601   1.78714   1.80532   1.83099   1.86108
 Alpha virt. eigenvalues --    1.89519   1.92032   1.95525   1.97778   1.99794
 Alpha virt. eigenvalues --    2.01667   2.03560   2.05520   2.07757   2.15691
 Alpha virt. eigenvalues --    2.18051   2.22151   2.22867   2.27137   2.29875
 Alpha virt. eigenvalues --    2.35508   2.38278   2.41205   2.46948   2.50648
 Alpha virt. eigenvalues --    2.51946   2.53394   2.58020   2.61854   2.69737
 Alpha virt. eigenvalues --    2.76894   2.81518   2.83129   2.92684   2.94151
 Alpha virt. eigenvalues --    2.96992   3.02338   3.04560   3.08199   3.13592
 Alpha virt. eigenvalues --    3.18804   3.31423   3.44363   3.44800   3.64924
 Alpha virt. eigenvalues --    3.96625
  Beta  occ. eigenvalues --  -19.33306 -19.31871 -10.37751 -10.30646 -10.30531
  Beta  occ. eigenvalues --  -10.30029 -10.29918  -1.24460  -1.02372  -0.90140
  Beta  occ. eigenvalues --   -0.79561  -0.75609  -0.67125  -0.64079  -0.60462
  Beta  occ. eigenvalues --   -0.58330  -0.57434  -0.52654  -0.49144  -0.47706
  Beta  occ. eigenvalues --   -0.46339  -0.44652  -0.43778  -0.38481  -0.36394
  Beta  occ. eigenvalues --   -0.29164
  Beta virt. eigenvalues --   -0.00202   0.07141   0.10678   0.13962   0.16241
  Beta virt. eigenvalues --    0.16852   0.18764   0.20694   0.21931   0.22982
  Beta virt. eigenvalues --    0.24348   0.29680   0.34068   0.36380   0.44213
  Beta virt. eigenvalues --    0.47749   0.47858   0.52688   0.54634   0.55821
  Beta virt. eigenvalues --    0.58024   0.59306   0.62838   0.63089   0.66360
  Beta virt. eigenvalues --    0.67158   0.67765   0.70482   0.72643   0.73443
  Beta virt. eigenvalues --    0.74338   0.76209   0.77098   0.77938   0.80623
  Beta virt. eigenvalues --    0.82428   0.84911   0.86338   0.87029   0.90632
  Beta virt. eigenvalues --    0.96482   1.00550   1.06443   1.09796   1.10921
  Beta virt. eigenvalues --    1.15987   1.20893   1.22720   1.29326   1.31540
  Beta virt. eigenvalues --    1.34342   1.38366   1.40125   1.50981   1.52486
  Beta virt. eigenvalues --    1.60504   1.61907   1.64511   1.66389   1.71822
  Beta virt. eigenvalues --    1.74254   1.77954   1.79560   1.81231   1.83536
  Beta virt. eigenvalues --    1.86790   1.90440   1.92743   1.95750   1.98326
  Beta virt. eigenvalues --    2.00322   2.02486   2.04819   2.06020   2.08608
  Beta virt. eigenvalues --    2.16205   2.19406   2.22875   2.23096   2.27167
  Beta virt. eigenvalues --    2.30635   2.35614   2.39651   2.42269   2.47153
  Beta virt. eigenvalues --    2.51259   2.52391   2.54489   2.59248   2.63140
  Beta virt. eigenvalues --    2.69978   2.77651   2.81628   2.83745   2.93168
  Beta virt. eigenvalues --    2.94518   2.97610   3.02364   3.04839   3.08565
  Beta virt. eigenvalues --    3.13960   3.18923   3.31567   3.44410   3.45199
  Beta virt. eigenvalues --    3.64945   3.96673
          Condensed to atoms (all electrons):
               1          2          3          4          5          6
     1  C    5.131488   0.494459   0.398987  -0.022876  -0.056135  -0.103496
     2  C    0.494459   4.710259  -0.027283   0.519072   0.423450  -0.045539
     3  H    0.398987  -0.027283   0.621896   0.007489  -0.007345   0.005546
     4  C   -0.022876   0.519072   0.007489   5.013780  -0.051359   0.324710
     5  H   -0.056135   0.423450  -0.007345  -0.051359   0.656062   0.010338
     6  C   -0.103496  -0.045539   0.005546   0.324710   0.010338   4.926088
     7  H    0.006841  -0.036478  -0.000073   0.404381  -0.007862  -0.044484
     8  H    0.002696   0.002984  -0.000110  -0.023900  -0.000305   0.379085
     9  H    0.002157  -0.000715  -0.000164  -0.013621  -0.000366   0.367888
    10  C    0.272174  -0.030652  -0.045711  -0.072376   0.009824   0.345872
    11  H   -0.011093  -0.002450  -0.000925   0.003014  -0.000396  -0.031428
    12  O   -0.032786   0.000542   0.001681   0.001590  -0.000094  -0.026708
    13  O    0.006858  -0.000154  -0.000129   0.000052   0.000002   0.000505
    14  H   -0.001051  -0.000003   0.000037  -0.000006  -0.000001   0.000014
               7          8          9         10         11         12
     1  C    0.006841   0.002696   0.002157   0.272174  -0.011093  -0.032786
     2  C   -0.036478   0.002984  -0.000715  -0.030652  -0.002450   0.000542
     3  H   -0.000073  -0.000110  -0.000164  -0.045711  -0.000925   0.001681
     4  C    0.404381  -0.023900  -0.013621  -0.072376   0.003014   0.001590
     5  H   -0.007862  -0.000305  -0.000366   0.009824  -0.000396  -0.000094
     6  C   -0.044484   0.379085   0.367888   0.345872  -0.031428  -0.026708
     7  H    0.635542  -0.001993  -0.000488   0.004372  -0.000238  -0.000061
     8  H   -0.001993   0.615288  -0.025292  -0.010936   0.000231   0.000748
     9  H   -0.000488  -0.025292   0.603008  -0.010775   0.001909   0.002114
    10  C    0.004372  -0.010936  -0.010775   4.792778   0.368417   0.272083
    11  H   -0.000238   0.000231   0.001909   0.368417   0.628357  -0.029704
    12  O   -0.000061   0.000748   0.002114   0.272083  -0.029704   7.942505
    13  O    0.000000  -0.000050   0.000204  -0.044407   0.008689   0.099831
    14  H    0.000000   0.000000  -0.000009   0.001609   0.001766  -0.017379
              13         14
     1  C    0.006858  -0.001051
     2  C   -0.000154  -0.000003
     3  H   -0.000129   0.000037
     4  C    0.000052  -0.000006
     5  H    0.000002  -0.000001
     6  C    0.000505   0.000014
     7  H    0.000000   0.000000
     8  H   -0.000050   0.000000
     9  H    0.000204  -0.000009
    10  C   -0.044407   0.001609
    11  H    0.008689   0.001766
    12  O    0.099831  -0.017379
    13  O    7.764605   0.313327
    14  H    0.313327   0.502058
          Atomic-Atomic Spin Densities.
               1          2          3          4          5          6
     1  C    0.764619  -0.028911   0.005773  -0.041310  -0.000925  -0.004113
     2  C   -0.028911  -0.274201  -0.000692   0.012150   0.000907  -0.000452
     3  H    0.005773  -0.000692  -0.035231  -0.000400   0.000266  -0.000011
     4  C   -0.041310   0.012150  -0.000400   0.758805  -0.001109  -0.046021
     5  H   -0.000925   0.000907   0.000266  -0.001109   0.010028   0.000100
     6  C   -0.004113  -0.000452  -0.000011  -0.046021   0.000100   0.028930
     7  H   -0.000411  -0.001754   0.000017   0.006007   0.000356   0.000396
     8  H    0.000415   0.000015   0.000011  -0.011214   0.000009   0.010614
     9  H    0.002878   0.000350  -0.000023  -0.014818  -0.000023   0.002695
    10  C   -0.019530  -0.000453   0.000640  -0.002547   0.000154   0.011242
    11  H   -0.012212   0.000532  -0.000236   0.002564  -0.000021  -0.006736
    12  O   -0.009514   0.000141   0.000283   0.000092   0.000004   0.001510
    13  O    0.000807  -0.000011  -0.000014  -0.000004  -0.000000  -0.000277
    14  H   -0.000059   0.000001   0.000000  -0.000000   0.000000   0.000017
               7          8          9         10         11         12
     1  C   -0.000411   0.000415   0.002878  -0.019530  -0.012212  -0.009514
     2  C   -0.001754   0.000015   0.000350  -0.000453   0.000532   0.000141
     3  H    0.000017   0.000011  -0.000023   0.000640  -0.000236   0.000283
     4  C    0.006007  -0.011214  -0.014818  -0.002547   0.002564   0.000092
     5  H    0.000356   0.000009  -0.000023   0.000154  -0.000021   0.000004
     6  C    0.000396   0.010614   0.002695   0.011242  -0.006736   0.001510
     7  H   -0.032487   0.000328  -0.000553  -0.000018  -0.000031   0.000004
     8  H    0.000328   0.021728  -0.007327   0.001132  -0.001217   0.000106
     9  H   -0.000553  -0.007327   0.048578  -0.002583   0.001053  -0.000474
    10  C   -0.000018   0.001132  -0.002583  -0.056373   0.004918   0.003767
    11  H   -0.000031  -0.001217   0.001053   0.004918   0.043576  -0.006907
    12  O    0.000004   0.000106  -0.000474   0.003767  -0.006907   0.018441
    13  O   -0.000000  -0.000018   0.000137   0.000580   0.001406  -0.003725
    14  H    0.000000   0.000002  -0.000011  -0.000061  -0.000157   0.000160
              13         14
     1  C    0.000807  -0.000059
     2  C   -0.000011   0.000001
     3  H   -0.000014   0.000000
     4  C   -0.000004  -0.000000
     5  H   -0.000000   0.000000
     6  C   -0.000277   0.000017
     7  H   -0.000000   0.000000
     8  H   -0.000018   0.000002
     9  H    0.000137  -0.000011
    10  C    0.000580  -0.000061
    11  H    0.001406  -0.000157
    12  O   -0.003725   0.000160
    13  O    0.008398   0.000035
    14  H    0.000035  -0.000201
 Mulliken charges and spin densities:
               1          2
     1  C   -0.088222   0.657507
     2  C   -0.007494  -0.292376
     3  H    0.046105  -0.029617
     4  C   -0.089949   0.662194
     5  H    0.024187   0.009747
     6  C   -0.108391  -0.002106
     7  H    0.040543  -0.028145
     8  H    0.061553   0.014583
     9  H    0.074149   0.029879
    10  C    0.147728  -0.059131
    11  H    0.063851   0.026534
    12  O   -0.214362   0.003889
    13  O   -0.149334   0.007315
    14  H    0.199637  -0.000274
 Sum of Mulliken charges =  -0.00000   1.00000
 Mulliken charges and spin densities with hydrogens summed into heavy atoms:
               1          2
     1  C   -0.042117   0.627890
     2  C    0.016693  -0.282628
     4  C   -0.049406   0.634048
     6  C    0.027311   0.042357
    10  C    0.211579  -0.032598
    12  O   -0.214362   0.003889
    13  O    0.050302   0.007041
 Electronic spatial extent (au):  <R**2>=            837.4082
 Charge=             -0.0000 electrons
 Dipole moment (field-independent basis, Debye):
    X=             -0.6875    Y=             -1.0538    Z=              0.7833  Tot=              1.4821
 Quadrupole moment (field-independent basis, Debye-Ang):
   XX=            -32.5245   YY=            -40.0861   ZZ=            -42.9014
   XY=              2.9473   XZ=             -1.6358   YZ=             -0.3075
 Traceless Quadrupole moment (field-independent basis, Debye-Ang):
   XX=              5.9795   YY=             -1.5821   ZZ=             -4.3974
   XY=              2.9473   XZ=             -1.6358   YZ=             -0.3075
 Octapole moment (field-independent basis, Debye-Ang**2):
  XXX=            -49.3676  YYY=             -3.2606  ZZZ=             -0.0260  XYY=             -3.0364
  XXY=             -9.3868  XXZ=             -1.6647  XZZ=             -9.4555  YZZ=              2.2758
  YYZ=             -0.5326  XYZ=              1.3701
 Hexadecapole moment (field-independent basis, Debye-Ang**3):
 XXXX=           -535.2146 YYYY=           -263.0244 ZZZZ=            -69.5646 XXXY=             23.6631
 XXXZ=             -4.5362 YYYX=             -3.6556 YYYZ=              2.9526 ZZZX=              1.7375
 ZZZY=              0.9493 XXYY=           -162.9193 XXZZ=           -139.0285 YYZZ=            -57.9359
 XXYZ=              1.4056 YYXZ=              0.1186 ZZXY=              1.1388
 N-N= 2.845255258113D+02 E-N=-1.373389822697D+03  KE= 3.412459875555D+02
                          Isotropic Fermi Contact Couplings
        Atom                 a.u.       MegaHertz       Gauss      10(-4) cm-1
     1  C(13)              0.11305     127.09283      45.34988      42.39361
     2  C(13)             -0.07227     -81.24576     -28.99051     -27.10067
     3  H(1)              -0.00906     -40.49553     -14.44981     -13.50785
     4  C(13)              0.11374     127.86120      45.62405      42.64990
     5  H(1)               0.00276      12.33595       4.40177       4.11483
     6  C(13)             -0.01378     -15.49160      -5.52779      -5.16744
     7  H(1)              -0.00813     -36.35159     -12.97115     -12.12559
     8  H(1)               0.00768      34.30707      12.24162      11.44361
     9  H(1)               0.01420      63.46277      22.64510      21.16890
    10  C(13)             -0.03840     -43.16828     -15.40351     -14.39939
    11  H(1)               0.01316      58.80190      20.98198      19.61420
    12  O(17)              0.06686     -40.52744     -14.46120     -13.51850
    13  O(17)             -0.00138       0.83800       0.29902       0.27953
    14  H(1)              -0.00008      -0.36941      -0.13182      -0.12322
 --------------------------------------------------------
       Center         ----  Spin Dipole Couplings  ----
                      3XX-RR        3YY-RR        3ZZ-RR
 --------------------------------------------------------
     1   Atom       -0.299433     -0.322658      0.622091
     2   Atom        0.094955      0.115675     -0.210630
     3   Atom       -0.039787      0.044088     -0.004301
     4   Atom       -0.322169     -0.346946      0.669114
     5   Atom        0.000536      0.007667     -0.008203
     6   Atom        0.003954      0.006779     -0.010733
     7   Atom        0.034354     -0.031934     -0.002420
     8   Atom       -0.002881      0.007402     -0.004521
     9   Atom        0.002118      0.000137     -0.002255
    10   Atom        0.018474     -0.015129     -0.003345
    11   Atom        0.003076     -0.002220     -0.000856
    12   Atom        0.007694     -0.045366      0.037673
    13   Atom        0.006752      0.007290     -0.014042
    14   Atom        0.003457     -0.001032     -0.002425
 --------------------------------------------------------
                        XY            XZ            YZ
 --------------------------------------------------------
     1   Atom       -0.011493      0.209817     -0.068714
     2   Atom        0.016476     -0.056046      0.005168
     3   Atom        0.016910      0.010583      0.001584
     4   Atom        0.006793      0.122151      0.009417
     5   Atom        0.008066     -0.002288     -0.001112
     6   Atom        0.026018     -0.025157     -0.021327
     7   Atom        0.033692     -0.003665     -0.002481
     8   Atom       -0.002376     -0.002145      0.008433
     9   Atom       -0.006459      0.007002     -0.004567
    10   Atom       -0.008013     -0.001178      0.010211
    11   Atom       -0.003787     -0.004207      0.004147
    12   Atom       -0.006357      0.022814      0.003752
    13   Atom       -0.022863     -0.007195      0.009571
    14   Atom        0.000285      0.000206      0.000153
 --------------------------------------------------------


 ---------------------------------------------------------------------------------
              Anisotropic Spin Dipole Couplings in Principal Axis System
 ---------------------------------------------------------------------------------

       Atom             a.u.   MegaHertz   Gauss  10(-4) cm-1        Axes

              Baa    -0.3456   -46.372   -16.547   -15.468  0.9584 -0.1810 -0.2207
     1 C(13)  Bbb    -0.3269   -43.868   -15.653   -14.633  0.1919  0.9810  0.0286
              Bcc     0.6725    90.240    32.200    30.101  0.2113 -0.0698  0.9749
 
              Baa    -0.2208   -29.626   -10.571    -9.882  0.1759 -0.0237  0.9841
     2 C(13)  Bbb     0.0941    12.630     4.507     4.213  0.8024 -0.5757 -0.1573
              Bcc     0.1267    16.995     6.064     5.669  0.5703  0.8173 -0.0822
 
              Baa    -0.0455   -24.300    -8.671    -8.106  0.9551 -0.1760 -0.2383
     3 H(1)   Bbb    -0.0021    -1.108    -0.395    -0.370  0.2207 -0.1141  0.9687
              Bcc     0.0476    25.408     9.066     8.475  0.1977  0.9778  0.0701
 
              Baa    -0.3496   -46.906   -16.737   -15.646 -0.4060  0.9130  0.0402
     4 C(13)  Bbb    -0.3345   -44.886   -16.016   -14.972  0.9059  0.4079 -0.1141
              Bcc     0.6840    91.792    32.754    30.619  0.1206  0.0099  0.9927
 
              Baa    -0.0088    -4.716    -1.683    -1.573  0.3046 -0.0849  0.9487
     5 H(1)   Bbb    -0.0043    -2.297    -0.820    -0.766  0.7782 -0.5521 -0.2993
              Bcc     0.0131     7.013     2.502     2.339  0.5492  0.8295 -0.1021
 
              Baa    -0.0297    -3.990    -1.424    -1.331  0.5468  0.0962  0.8317
     6 C(13)  Bbb    -0.0196    -2.634    -0.940    -0.878 -0.5616  0.7789  0.2791
              Bcc     0.0494     6.624     2.364     2.210  0.6210  0.6198 -0.4799
 
              Baa    -0.0461   -24.581    -8.771    -8.199 -0.3855  0.9225  0.0201
     7 H(1)   Bbb    -0.0028    -1.478    -0.527    -0.493  0.0856  0.0141  0.9962
              Bcc     0.0488    26.058     9.298     8.692  0.9187  0.3858 -0.0844
 
              Baa    -0.0090    -4.804    -1.714    -1.602  0.1421 -0.4362  0.8886
     8 H(1)   Bbb    -0.0034    -1.810    -0.646    -0.604  0.9696  0.2418 -0.0364
              Bcc     0.0124     6.614     2.360     2.206 -0.1990  0.8668  0.4573
 
              Baa    -0.0074    -3.954    -1.411    -1.319 -0.6110 -0.0446  0.7904
     9 H(1)   Bbb    -0.0050    -2.650    -0.946    -0.884  0.4069  0.8387  0.3619
              Bcc     0.0124     6.604     2.357     2.203  0.6790 -0.5427  0.4943
 
              Baa    -0.0220    -2.959    -1.056    -0.987  0.1587  0.8708 -0.4654
    10 C(13)  Bbb     0.0012     0.165     0.059     0.055  0.2544  0.4194  0.8714
              Bcc     0.0208     2.794     0.997     0.932  0.9540 -0.2567 -0.1550
 
              Baa    -0.0057    -3.066    -1.094    -1.023  0.0326  0.7759 -0.6300
    11 H(1)   Bbb    -0.0028    -1.487    -0.531    -0.496  0.6933  0.4364  0.5734
              Bcc     0.0085     4.553     1.625     1.519  0.7199 -0.4555 -0.5237
 
              Baa    -0.0467     3.376     1.205     1.126  0.1507  0.9850 -0.0846
    12 O(17)  Bbb    -0.0033     0.240     0.086     0.080  0.8673 -0.1728 -0.4669
              Bcc     0.0500    -3.617    -1.291    -1.206  0.4744  0.0030  0.8803
 
              Baa    -0.0181     1.311     0.468     0.437 -0.2642 -0.5390  0.7998
    13 O(17)  Bbb    -0.0148     1.069     0.381     0.357  0.6883  0.4756  0.5478
              Bcc     0.0329    -2.380    -0.849    -0.794 -0.6757  0.6952  0.2454
 
              Baa    -0.0024    -1.306    -0.466    -0.435 -0.0299 -0.1015  0.9944
    14 H(1)   Bbb    -0.0010    -0.553    -0.197    -0.184 -0.0675  0.9928  0.0993
              Bcc     0.0035     1.858     0.663     0.620  0.9973  0.0642  0.0365
 

 ---------------------------------------------------------------------------------

 No NMR shielding tensors so no spin-rotation constants.
 Leave Link  601 at Tue May 20 12:18:08 2025, MaxMem=  3758096384 cpu:               0.8 elap:               0.2
 (Enter /gpfs/fs1/soft/bebop/software/custom-built/gaussian/16-c.02/g16/l9999.exe)


 Any fool can criticize, condemn, and complain -- and most do.
 -- Dale Carnegie
 Error termination request processed by link 9999.
 Error termination via Lnk1e in /gpfs/fs1/soft/bebop/software/custom-built/gaussian/16-c.02/g16/l9999.exe at Tue May 20 12:18:08 2025.
 Job cpu time:       0 days  0 hours 59 minutes 39.8 seconds.
 Elapsed time:       0 days  0 hours 11 minutes 25.9 seconds.
 File lengths (MBytes):  RWF=     15 Int=      0 D2E=      0 Chk=      3 Scr=      1
