 Entering Gaussian System, Link 0=g16
 Input=run.inp
 Output=run.out
 Initial command:
 /gpfs/fs1/soft/bebop/software/custom-built/gaussian/16-c.02/g16/l1.exe "/scratch/Gau-2159469.inp" -scrdir="/scratch/"
 Default CPUs for threads: 0-35
 Default is to use a total of  36 processors:
                               36 via shared-memory
                                1 via Linda
 Entering Link 1 = /gpfs/fs1/soft/bebop/software/custom-built/gaussian/16-c.02/g16/l1.exe PID=   2159470.
  
 Copyright (c) 1988-2019, Gaussian, Inc.  All Rights Reserved.
  
 This is part of the Gaussian(R) 16 program.  It is based on
 the Gaussian(R) 09 system (copyright 2009, Gaussian, Inc.),
 the Gaussian(R) 03 system (copyright 2003, Gaussian, Inc.),
 the Gaussian(R) 98 system (copyright 1998, Gaussian, Inc.),
 the Gaussian(R) 94 system (copyright 1995, Gaussian, Inc.),
 the Gaussian 92(TM) system (copyright 1992, Gaussian, Inc.),
 the Gaussian 90(TM) system (copyright 1990, Gaussian, Inc.),
 the Gaussian 88(TM) system (copyright 1988, Gaussian, Inc.),
 the Gaussian 86(TM) system (copyright 1986, Carnegie Mellon
 University), and the Gaussian 82(TM) system (copyright 1983,
 Carnegie Mellon University). Gaussian is a federally registered
 trademark of Gaussian, Inc.
  
 This software contains proprietary and confidential information,
 including trade secrets, belonging to Gaussian, Inc.
  
 This software is provided under written license and may be
 used, copied, transmitted, or stored only in accord with that
 written license.
  
 The following legend is applicable only to US Government
 contracts under FAR:
  
                    RESTRICTED RIGHTS LEGEND
  
 Use, reproduction and disclosure by the US Government is
 subject to restrictions as set forth in subparagraphs (a)
 and (c) of the Commercial Computer Software - Restricted
 Rights clause in FAR 52.227-19.
  
 Gaussian, Inc.
 340 Quinnipiac St., Bldg. 40, Wallingford CT 06492
  
  
 ---------------------------------------------------------------
 Warning -- This program may not be used in any manner that
 competes with the business of Gaussian, Inc. or will provide
 assistance to any competitor of Gaussian, Inc.  The licensee
 of this program is prohibited from giving any competitor of
 Gaussian, Inc. access to this program.  By using this program,
 the user acknowledges that Gaussian, Inc. is engaged in the
 business of creating and licensing software in the field of
 computational chemistry and represents and warrants to the
 licensee that it is not a competitor of Gaussian, Inc. and that
 it will not use this program in any manner prohibited above.
 ---------------------------------------------------------------
  

 Cite this work as:
 Gaussian 16, Revision C.01,
 M. J. Frisch, G. W. Trucks, H. B. Schlegel, G. E. Scuseria, 
 M. A. Robb, J. R. Cheeseman, G. Scalmani, V. Barone, 
 G. A. Petersson, H. Nakatsuji, X. Li, M. Caricato, A. V. Marenich, 
 J. Bloino, B. G. Janesko, R. Gomperts, B. Mennucci, H. P. Hratchian, 
 J. V. Ortiz, A. F. Izmaylov, J. L. Sonnenberg, D. Williams-Young, 
 F. Ding, F. Lipparini, F. Egidi, J. Goings, B. Peng, A. Petrone, 
 T. Henderson, D. Ranasinghe, V. G. Zakrzewski, J. Gao, N. Rega, 
 G. Zheng, W. Liang, M. Hada, M. Ehara, K. Toyota, R. Fukuda, 
 J. Hasegawa, M. Ishida, T. Nakajima, Y. Honda, O. Kitao, H. Nakai, 
 T. Vreven, K. Throssell, J. A. Montgomery, Jr., J. E. Peralta, 
 F. Ogliaro, M. J. Bearpark, J. J. Heyd, E. N. Brothers, K. N. Kudin, 
 V. N. Staroverov, T. A. Keith, R. Kobayashi, J. Normand, 
 K. Raghavachari, A. P. Rendell, J. C. Burant, S. S. Iyengar, 
 J. Tomasi, M. Cossi, J. M. Millam, M. Klene, C. Adamo, R. Cammi, 
 J. W. Ochterski, R. L. Martin, K. Morokuma, O. Farkas, 
 J. B. Foresman, and D. J. Fox, Gaussian, Inc., Wallingford CT, 2019.
 
 ******************************************
 Gaussian 16:  ES64L-G16RevC.01  3-Jul-2019
                20-May-2025 
 ******************************************
 %mem=28GB
 %NProcShared=6
 Will use up to    6 processors via shared memory.
 -------------------------------------------------------
 #P wb97xd/def2svp # SCF=(xqc) # POpt=() # int=ultrafine
 -------------------------------------------------------
 1/10=7,26=4,38=1/1,3;
 2/12=2,17=6,18=5,29=3,40=1/2;
 3/5=43,7=101,11=2,25=1,30=1,71=1,74=-58,75=-5/1,2,3;
 4//1;
 5/5=2,8=3,13=1,38=5/2,8;
 6/7=2,8=2,9=2,10=2,28=1/1;
 7/29=1/1,2,3,16;
 1/10=7,26=4/3(2);
 2/29=3/2;
 99//99;
 2/29=3/2;
 3/5=43,7=101,11=2,25=1,30=1,71=1,74=-58,75=-5/1,2,3;
 4/5=5,16=3,69=1/1;
 5/5=2,8=3,13=1,38=5/2,8;
 7//1,2,3,16;
 1/26=4/3(-5);
 2/29=3/2;
 6/7=2,8=2,9=2,10=2,19=2,28=1/1;
 99/9=1/99;
 Leave Link    1 at Tue May 20 11:14:19 2025, MaxMem=  3758096384 cpu:               1.1 elap:               0.1
 (Enter /gpfs/fs1/soft/bebop/software/custom-built/gaussian/16-c.02/g16/l101.exe)
 --------
 comment:
 --------
 Symbolic Z-matrix:
 Charge =  0 Multiplicity = 2
 C
 C                    1    R1
 H                    1    R2       2    A2
 C                    2    R3       1    A3       3    D3       0
 H                    2    R4       1    A4       4    D4       0
 C                    4    R5       2    A5       1    D5       0
 H                    4    R6       2    A6       6    D6       0
 H                    6    R7       4    A7       2    D7       0
 H                    6    R8       4    A8       8    D8       0
 C                    6    R9       4    A9       8    D9       0
 H                    10   R10      6    A10      4    D10      0
 O                    10   R11      6    A11      11   D11      0
 O                    12   R12      10   A12      1    D12      0
 H                    13   R13      12   A13      10   D13      0
       Variables:
  R1                    1.4235                   
  R2                    1.0935                   
  R3                    1.3994                   
  R4                    1.0904                   
  R5                    1.3843                   
  R6                    1.0947                   
  R7                    1.0866                   
  R8                    1.0951                   
  R10                   1.0958                   
  R11                   1.3664                   
  R12                   1.4288                   
  R13                   0.9671                   
  A2                  123.1813                   
  A3                  111.5326                   
  A4                  124.363                    
  A5                  119.1233                   
  A6                  121.2525                   
  A7                  124.3528                   
  A8                  118.429                    
  A9                   88.876                    
  A10                 130.1041                   
  A11                  72.1786                   
  A12                 106.6501                   
  A13                  99.6035                   
  D3                  218.9316                   
  D4                  176.4374                   
  D5                   10.9203                   
  D6                  182.864                    
  D7                   29.307                    
  D8                  161.0307                   
  D9                  305.911                    
  D10                 158.4631                   
  D11                 101.892                    
  D12                 138.5985                   
  D13                 138.8557                   
       Constants:
  R9                    2.25                     
 
 ITRead=  0  0  0  0  0  0  0  0  0  0  0  0  0  0
 MicOpt= -1 -1 -1 -1 -1 -1 -1 -1 -1 -1 -1 -1 -1 -1
 NAtoms=     14 NQM=       14 NQMF=       0 NMMI=      0 NMMIF=      0
                NMic=       0 NMicF=      0.
                    Isotopes and Nuclear Properties:
 (Nuclear quadrupole moments (NQMom) in fm**2, nuclear magnetic moments (NMagM)
  in nuclear magnetons)

  Atom         1           2           3           4           5           6           7           8           9          10
 IAtWgt=          12          12           1          12           1          12           1           1           1          12
 AtmWgt=  12.0000000  12.0000000   1.0078250  12.0000000   1.0078250  12.0000000   1.0078250   1.0078250   1.0078250  12.0000000
 NucSpn=           0           0           1           0           1           0           1           1           1           0
 AtZEff=  -0.0000000  -0.0000000  -0.0000000  -0.0000000  -0.0000000  -0.0000000  -0.0000000  -0.0000000  -0.0000000  -0.0000000
 NQMom=    0.0000000   0.0000000   0.0000000   0.0000000   0.0000000   0.0000000   0.0000000   0.0000000   0.0000000   0.0000000
 NMagM=    0.0000000   0.0000000   2.7928460   0.0000000   2.7928460   0.0000000   2.7928460   2.7928460   2.7928460   0.0000000
 AtZNuc=   6.0000000   6.0000000   1.0000000   6.0000000   1.0000000   6.0000000   1.0000000   1.0000000   1.0000000   6.0000000

  Atom        11          12          13          14
 IAtWgt=           1          16          16           1
 AtmWgt=   1.0078250  15.9949146  15.9949146   1.0078250
 NucSpn=           1           0           0           1
 AtZEff=  -0.0000000  -0.0000000  -0.0000000  -0.0000000
 NQMom=    0.0000000   0.0000000   0.0000000   0.0000000
 NMagM=    2.7928460   0.0000000   0.0000000   2.7928460
 AtZNuc=   1.0000000   8.0000000   8.0000000   1.0000000
 Leave Link  101 at Tue May 20 11:14:19 2025, MaxMem=  3758096384 cpu:               0.6 elap:               0.1
 (Enter /gpfs/fs1/soft/bebop/software/custom-built/gaussian/16-c.02/g16/l103.exe)

 GradGradGradGradGradGradGradGradGradGradGradGradGradGradGradGradGradGrad
 Berny optimization.
 Initialization pass.
                       ----------------------------
                       !    Initial Parameters    !
                       ! (Angstroms and Degrees)  !
 ----------------------                            ----------------------
 !      Name          Value   Derivative information (Atomic Units)     !
 ------------------------------------------------------------------------
 !       R1          1.4235   estimate D2E/DX2                          !
 !       R2          1.0935   estimate D2E/DX2                          !
 !       R3          1.3994   estimate D2E/DX2                          !
 !       R4          1.0904   estimate D2E/DX2                          !
 !       R5          1.3843   estimate D2E/DX2                          !
 !       R6          1.0947   estimate D2E/DX2                          !
 !       R7          1.0866   estimate D2E/DX2                          !
 !       R8          1.0951   estimate D2E/DX2                          !
 !       R10         1.0958   estimate D2E/DX2                          !
 !       R11         1.3664   estimate D2E/DX2                          !
 !       R12         1.4288   estimate D2E/DX2                          !
 !       R13         0.9671   estimate D2E/DX2                          !
 !       A2        123.1813   estimate D2E/DX2                          !
 !       A3        111.5326   estimate D2E/DX2                          !
 !       A4        124.363    estimate D2E/DX2                          !
 !       A5        119.1233   estimate D2E/DX2                          !
 !       A6        121.2525   estimate D2E/DX2                          !
 !       A7        124.3528   estimate D2E/DX2                          !
 !       A8        118.429    estimate D2E/DX2                          !
 !       A9         88.876    estimate D2E/DX2                          !
 !       A10       130.1041   estimate D2E/DX2                          !
 !       A11        72.1786   estimate D2E/DX2                          !
 !       A12       106.6501   estimate D2E/DX2                          !
 !       A13        99.6035   estimate D2E/DX2                          !
 !       D3        218.9316   estimate D2E/DX2                          !
 !       D4        176.4374   estimate D2E/DX2                          !
 !       D5         10.9203   estimate D2E/DX2                          !
 !       D6        182.864    estimate D2E/DX2                          !
 !       D7         29.307    estimate D2E/DX2                          !
 !       D8        161.0307   estimate D2E/DX2                          !
 !       D9        305.911    estimate D2E/DX2                          !
 !       D10       158.4631   estimate D2E/DX2                          !
 !       D11       101.892    estimate D2E/DX2                          !
 !       D12       138.5985   estimate D2E/DX2                          !
 !       D13       138.8557   estimate D2E/DX2                          !
 !       R9          2.25     Frozen                                    !
 ------------------------------------------------------------------------
 Trust Radius=3.00D-01 FncErr=1.00D-07 GrdErr=1.00D-06 EigMax=2.50D+02 EigMin=1.00D-04
 Number of steps in this run=     46 maximum allowed number of steps=    100.
 GradGradGradGradGradGradGradGradGradGradGradGradGradGradGradGradGradGrad

 Leave Link  103 at Tue May 20 11:14:19 2025, MaxMem=  3758096384 cpu:               0.1 elap:               0.0
 (Enter /gpfs/fs1/soft/bebop/software/custom-built/gaussian/16-c.02/g16/l202.exe)
 ---------------------------------------------------------------------------------------------------
                            Z-MATRIX (ANGSTROMS AND DEGREES)
   CD    Cent   Atom    N1       Length/X        N2       Alpha/Y        N3        Beta/Z          J
 ---------------------------------------------------------------------------------------------------
      1      1  C 
      2      2  C        1   1.423500(     1)
      3      3  H        1   1.093500(     2)      2  123.181(    14)
      4      4  C        2   1.399400(     3)      1  111.533(    15)      3  218.932(    26)      0
      5      5  H        2   1.090400(     4)      1  124.363(    16)      4  176.437(    27)      0
      6      6  C        4   1.384300(     5)      2  119.123(    17)      1   10.920(    28)      0
      7      7  H        4   1.094700(     6)      2  121.252(    18)      6  182.864(    29)      0
      8      8  H        6   1.086600(     7)      4  124.353(    19)      2   29.307(    30)      0
      9      9  H        6   1.095100(     8)      4  118.429(    20)      8  161.031(    31)      0
     10     10  C        6   2.250000(     9)      4   88.876(    21)      8  305.911(    32)      0
     11     11  H       10   1.095800(    10)      6  130.104(    22)      4  158.463(    33)      0
     12     12  O       10   1.366400(    11)      6   72.179(    23)     11  101.892(    34)      0
     13     13  O       12   1.428800(    12)     10  106.650(    24)      1  138.599(    35)      0
     14     14  H       13   0.967100(    13)     12   99.603(    25)     10  138.856(    36)      0
 ---------------------------------------------------------------------------------------------------
                         Z-Matrix orientation:                         
 ---------------------------------------------------------------------
 Center     Atomic      Atomic             Coordinates (Angstroms)
 Number     Number       Type             X           Y           Z
 ---------------------------------------------------------------------
      1          6           0        0.000000    0.000000    0.000000
      2          6           0        0.000000    0.000000    1.423500
      3          1           0        0.915197    0.000000   -0.598462
      4          6           0       -1.012615   -0.818000    1.937123
      5          1           0        0.733980    0.521015    2.038959
      6          6           0       -1.695182   -1.663885    1.079879
      7          1           0       -1.304201   -0.766899    2.991036
      8          1           0       -1.269754   -2.097641    0.179009
      9          1           0       -2.592728   -2.169416    1.451489
     10          6           0       -1.175511   -0.286555   -0.621710
     11          1           0       -1.134560   -0.480346   -1.699460
     12          8           0       -2.457591   -0.011360   -0.237541
     13          8           0       -3.155448    0.408826   -1.411385
     14          1           0       -3.995107   -0.050655   -1.273060
 ---------------------------------------------------------------------
                    Distance matrix (angstroms):
                    1          2          3          4          5
     1  C    0.000000
     2  C    1.423500   0.000000
     3  H    1.093500   2.219440   0.000000
     4  C    2.333871   1.399400   3.288582   0.000000
     5  H    2.228797   1.090400   2.694491   2.203162   0.000000
     6  C    2.609271   2.400048   3.521281   1.384300   3.405062
     7  H    3.351921   2.178588   4.289331   1.094700   2.592172
     8  H    2.458540   2.749751   3.127071   2.189650   3.785726
     9  H    3.679052   3.380737   4.605888   2.135163   4.318625
    10  C    1.360317   2.376304   2.110382   2.618509   3.373052
    11  H    2.099077   3.357207   2.375802   3.654259   4.297667
    12  O    2.469071   2.966301   3.392064   2.732725   3.956261
    13  O    3.480805   4.261521   4.171108   4.160449   5.200491
    14  H    4.193343   4.820258   4.956686   4.448522   5.801770
                    6          7          8          9         10
     6  C    0.000000
     7  H    2.147085   0.000000
     8  H    1.086600   3.111199   0.000000
     9  H    1.095100   2.448992   1.837013   0.000000
    10  C    2.250000   3.646810   1.982439   3.138761   0.000000
    11  H    3.072423   4.702302   2.482452   3.861048   1.095800
    12  O    2.246709   3.510678   2.436605   2.743773   1.366400
    13  O    3.554561   4.918410   3.516756   3.893589   2.242163
    14  H    3.664491   5.092789   3.704890   3.725451   2.903451
                   11         12         13         14
    11  H    0.000000
    12  O    2.026713   0.000000
    13  O    2.226567   1.428800   0.000000
    14  H    2.923898   1.854130   0.967100   0.000000
 Stoichiometry    C5H7O2(2)
 Framework group  C1[X(C5H7O2)]
 Deg. of freedom    36
 Full point group                 C1      NOp   1
 Largest Abelian subgroup         C1      NOp   1
 Largest concise Abelian subgroup C1      NOp   1
                         Standard orientation:                         
 ---------------------------------------------------------------------
 Center     Atomic      Atomic             Coordinates (Angstroms)
 Number     Number       Type             X           Y           Z
 ---------------------------------------------------------------------
      1          6           0        0.726822   -1.305708    0.222179
      2          6           0        1.750230   -0.588491   -0.459429
      3          1           0        0.907556   -2.240825    0.759427
      4          6           0        1.601731    0.793897   -0.300457
      5          1           0        2.581909   -1.055683   -0.987646
      6          6           0        0.693403    1.271502    0.628585
      7          1           0        2.154878    1.500367   -0.927591
      8          1           0        0.413674    0.747162    1.538266
      9          1           0        0.459171    2.341257    0.626450
     10          6           0       -0.449481   -0.657116    0.436888
     11          1           0       -1.159483   -1.128369    1.125797
     12          8           0       -1.082455    0.281858   -0.327782
     13          8           0       -2.473564   -0.043514   -0.307341
     14          1           0       -2.845778    0.844837   -0.220326
 ---------------------------------------------------------------------
 Rotational constants (GHZ):           5.2923925           2.0907382           1.7106977
 Leave Link  202 at Tue May 20 11:14:19 2025, MaxMem=  3758096384 cpu:               0.1 elap:               0.0
 (Enter /gpfs/fs1/soft/bebop/software/custom-built/gaussian/16-c.02/g16/l301.exe)
 Standard basis: def2SVP (5D, 7F)
 Ernie: Thresh=  0.10000D-02 Tol=  0.10000D-05 Strict=F.
 There are   140 symmetry adapted cartesian basis functions of A   symmetry.
 There are   133 symmetry adapted basis functions of A   symmetry.
   133 basis functions,   224 primitive gaussians,   140 cartesian basis functions
    27 alpha electrons       26 beta electrons
       nuclear repulsion energy       297.2392996778 Hartrees.
 IExCor= 4639 DFT=T Ex+Corr=wB97XD ExCW=0 ScaHFX=  1.000000
 ScaDFX=  1.000000  1.000000  1.000000  1.000000 ScalE2=  1.000000  1.000000
 IRadAn=      5 IRanWt=     -1 IRanGd=            0 ICorTp=0 IEmpDi=121
 HFx  wShort=  0.000000 wLong=  0.200000 cFull=  0.222036 cShort=  0.000000 cLong=  0.777964
 DFx  wShort=  0.000000 wLong=  0.200000 cFull=  0.000000 cShort=  0.000000 cLong=  1.000000
 NAtoms=   14 NActive=   14 NUniq=   14 SFac= 1.00D+00 NAtFMM=   60 NAOKFM=F Big=F
 Integral buffers will be    131072 words long.
 Raffenetti 2 integral format.
 Two-electron integral symmetry is turned on.
 R6Disp:  Grimme-D2 Dispersion energy=       -0.0057279383 Hartrees.
 Nuclear repulsion after empirical dispersion term =      297.2335717395 Hartrees.
 Leave Link  301 at Tue May 20 11:14:19 2025, MaxMem=  3758096384 cpu:               0.3 elap:               0.1
 (Enter /gpfs/fs1/soft/bebop/software/custom-built/gaussian/16-c.02/g16/l302.exe)
 NPDir=0 NMtPBC=     1 NCelOv=     1 NCel=       1 NClECP=     1 NCelD=      1
         NCelK=      1 NCelE2=     1 NClLst=     1 CellRange=     0.0.
 One-electron integrals computed using PRISM.
 One-electron integral symmetry used in STVInt
   1 Symmetry operations used in ECPInt.
 ECPInt:  NShTT=    2016 NPrTT=    7252 LenC2=    2008 LenP2D=    5978.
 LDataN:  DoStor=T MaxTD1= 4 Len=   56
 NBasis=   133 RedAO= T EigKep=  1.01D-03  NBF=   133
 NBsUse=   133 1.00D-06 EigRej= -1.00D+00 NBFU=   133
 Precomputing XC quadrature grid using
 IXCGrd= 4 IRadAn=           5 IRanWt=          -1 IRanGd=           0 AccXCQ= 0.00D+00.
 Generated NRdTot=       0 NPtTot=           0 NUsed=           0 NTot=          32
 NSgBfM=   140   140   140   140   140 MxSgAt=    14 MxSgA2=    14.
 Leave Link  302 at Tue May 20 11:14:19 2025, MaxMem=  3758096384 cpu:               0.8 elap:               0.2
 (Enter /gpfs/fs1/soft/bebop/software/custom-built/gaussian/16-c.02/g16/l303.exe)
 DipDrv:  MaxL=1.
 Leave Link  303 at Tue May 20 11:14:19 2025, MaxMem=  3758096384 cpu:               0.1 elap:               0.0
 (Enter /gpfs/fs1/soft/bebop/software/custom-built/gaussian/16-c.02/g16/l401.exe)
 ExpMin= 1.22D-01 ExpMax= 2.27D+03 ExpMxC= 3.41D+02 IAcc=3 IRadAn=         5 AccDes= 0.00D+00
 Harris functional with IExCor= 4639 and IRadAn=       5 diagonalized for initial guess.
 HarFok:  IExCor= 4639 AccDes= 0.00D+00 IRadAn=         5 IDoV= 1 UseB2=F ITyADJ=14
 ICtDFT=  3500011 ScaDFX=  1.000000  1.000000  1.000000  1.000000
 FoFCou: FMM=F IPFlag=           0 FMFlag=      100000 FMFlg1=           0
         NFxFlg=           0 DoJE=T BraDBF=F KetDBF=T FulRan=T
         wScrn=  0.000000 ICntrl=       500 IOpCl=  0 I1Cent=   200000004 NGrid=           0
         NMat0=    1 NMatS0=      1 NMatT0=    0 NMatD0=    1 NMtDS0=    0 NMtDT0=    0
 Petite list used in FoFCou.
 Harris En= -330.316435424641    
 JPrj=0 DoOrth=F DoCkMO=F.
 Initial guess <Sx>= 0.0000 <Sy>= 0.0000 <Sz>= 0.5000 <S**2>= 0.7500 S= 0.5000
 Leave Link  401 at Tue May 20 11:14:20 2025, MaxMem=  3758096384 cpu:               2.5 elap:               0.4
 (Enter /gpfs/fs1/soft/bebop/software/custom-built/gaussian/16-c.02/g16/l502.exe)
 Keep R1 and R2 ints in memory in canonical form, NReq=165843629.
 FoFCou: FMM=F IPFlag=           0 FMFlag=           0 FMFlg1=           0
         NFxFlg=           0 DoJE=F BraDBF=F KetDBF=F FulRan=T
         wScrn=  0.000000 ICntrl=       600 IOpCl=  0 I1Cent=           0 NGrid=           0
         NMat0=    1 NMatS0=   8911 NMatT0=    0 NMatD0=    1 NMtDS0=    0 NMtDT0=    0
 Symmetry not used in FoFCou.
 Two-electron integral symmetry not used.
 UHF open shell SCF:
 Using DIIS extrapolation, IDIIS=  1040.
 NGot=  3758096384 LenX=  3599224750 LenY=  3599204709
 Requested convergence on RMS density matrix=1.00D-08 within  32 cycles.
 Requested convergence on MAX density matrix=1.00D-06.
 Requested convergence on             energy=1.00D-06.
 No special actions if energy rises.
 Integral accuracy reduced to 1.0D-05 until final iterations.

 Cycle   1  Pass 0  IDiag  1:
 E= -344.351314475817    
 DIIS: error= 2.62D-02 at cycle   1 NSaved=   1.
 NSaved= 1 IEnMin= 1 EnMin= -344.351314475817     IErMin= 1 ErrMin= 2.62D-02
 ErrMax= 2.62D-02  0.00D+00 EMaxC= 1.00D-01 BMatC= 1.31D+00 BMatP= 1.31D+00
 IDIUse=3 WtCom= 7.38D-01 WtEn= 2.62D-01
 Coeff-Com:  0.100D+01
 Coeff-En:   0.100D+01
 Coeff:      0.100D+01
 Gap=     0.189 Goal=   None    Shift=    0.000
 Gap=     0.512 Goal=   None    Shift=    0.000
 GapD=    0.189 DampG=1.000 DampE=0.500 DampFc=0.5000 IDamp=-1.
 Damping current iteration by 5.00D-01
 RMSDP=8.05D-03 MaxDP=2.10D-01              OVMax= 3.91D-01

 Cycle   2  Pass 0  IDiag  1:
 E= -344.422919698627     Delta-E=       -0.071605222809 Rises=F Damp=T
 DIIS: error= 1.29D-02 at cycle   2 NSaved=   2.
 NSaved= 2 IEnMin= 2 EnMin= -344.422919698627     IErMin= 2 ErrMin= 1.29D-02
 ErrMax= 1.29D-02  0.00D+00 EMaxC= 1.00D-01 BMatC= 1.57D-01 BMatP= 1.31D+00
 IDIUse=3 WtCom= 8.71D-01 WtEn= 1.29D-01
 Coeff-Com:  0.644D-01 0.936D+00
 Coeff-En:   0.257D+00 0.743D+00
 Coeff:      0.892D-01 0.911D+00
 Gap=     0.265 Goal=   None    Shift=    0.000
 Gap=     0.429 Goal=   None    Shift=    0.000
 RMSDP=2.28D-03 MaxDP=5.06D-02 DE=-7.16D-02 OVMax= 3.15D-01

 Cycle   3  Pass 0  IDiag  1:
 E= -344.563639090901     Delta-E=       -0.140719392274 Rises=F Damp=F
 DIIS: error= 3.78D-03 at cycle   3 NSaved=   3.
 NSaved= 3 IEnMin= 3 EnMin= -344.563639090901     IErMin= 3 ErrMin= 3.78D-03
 ErrMax= 3.78D-03  0.00D+00 EMaxC= 1.00D-01 BMatC= 2.10D-02 BMatP= 1.57D-01
 IDIUse=3 WtCom= 9.62D-01 WtEn= 3.78D-02
 Coeff-Com: -0.946D-01 0.183D+00 0.911D+00
 Coeff-En:   0.000D+00 0.000D+00 0.100D+01
 Coeff:     -0.911D-01 0.176D+00 0.915D+00
 Gap=     0.268 Goal=   None    Shift=    0.000
 Gap=     0.312 Goal=   None    Shift=    0.000
 RMSDP=8.24D-04 MaxDP=1.57D-02 DE=-1.41D-01 OVMax= 5.34D-02

 Cycle   4  Pass 0  IDiag  1:
 E= -344.570730737663     Delta-E=       -0.007091646763 Rises=F Damp=F
 DIIS: error= 1.47D-03 at cycle   4 NSaved=   4.
 NSaved= 4 IEnMin= 4 EnMin= -344.570730737663     IErMin= 4 ErrMin= 1.47D-03
 ErrMax= 1.47D-03  0.00D+00 EMaxC= 1.00D-01 BMatC= 3.17D-03 BMatP= 2.10D-02
 IDIUse=3 WtCom= 9.85D-01 WtEn= 1.47D-02
 Coeff-Com: -0.429D-01 0.623D-01 0.427D+00 0.553D+00
 Coeff-En:   0.000D+00 0.000D+00 0.000D+00 0.100D+01
 Coeff:     -0.422D-01 0.613D-01 0.421D+00 0.560D+00
 Gap=     0.273 Goal=   None    Shift=    0.000
 Gap=     0.314 Goal=   None    Shift=    0.000
 RMSDP=2.91D-04 MaxDP=5.18D-03 DE=-7.09D-03 OVMax= 1.58D-02

 Cycle   5  Pass 0  IDiag  1:
 E= -344.571967570040     Delta-E=       -0.001236832377 Rises=F Damp=F
 DIIS: error= 8.57D-04 at cycle   5 NSaved=   5.
 NSaved= 5 IEnMin= 5 EnMin= -344.571967570040     IErMin= 5 ErrMin= 8.57D-04
 ErrMax= 8.57D-04  0.00D+00 EMaxC= 1.00D-01 BMatC= 5.73D-04 BMatP= 3.17D-03
 IDIUse=3 WtCom= 9.91D-01 WtEn= 8.57D-03
 Coeff-Com:  0.191D-01-0.439D-01-0.191D+00 0.101D+00 0.111D+01
 Coeff-En:   0.000D+00 0.000D+00 0.000D+00 0.000D+00 0.100D+01
 Coeff:      0.189D-01-0.435D-01-0.189D+00 0.100D+00 0.111D+01
 Gap=     0.280 Goal=   None    Shift=    0.000
 Gap=     0.318 Goal=   None    Shift=    0.000
 RMSDP=3.83D-04 MaxDP=6.18D-03 DE=-1.24D-03 OVMax= 2.83D-02

 Cycle   6  Pass 0  IDiag  1:
 E= -344.572870025203     Delta-E=       -0.000902455163 Rises=F Damp=F
 DIIS: error= 5.02D-04 at cycle   6 NSaved=   6.
 NSaved= 6 IEnMin= 6 EnMin= -344.572870025203     IErMin= 6 ErrMin= 5.02D-04
 ErrMax= 5.02D-04  0.00D+00 EMaxC= 1.00D-01 BMatC= 1.91D-04 BMatP= 5.73D-04
 IDIUse=3 WtCom= 9.95D-01 WtEn= 5.02D-03
 Coeff-Com:  0.163D-01-0.281D-01-0.132D+00-0.132D+00 0.256D+00 0.102D+01
 Coeff-En:   0.000D+00 0.000D+00 0.000D+00 0.000D+00 0.000D+00 0.100D+01
 Coeff:      0.162D-01-0.280D-01-0.131D+00-0.131D+00 0.255D+00 0.102D+01
 Gap=     0.282 Goal=   None    Shift=    0.000
 Gap=     0.321 Goal=   None    Shift=    0.000
 RMSDP=2.28D-04 MaxDP=3.08D-03 DE=-9.02D-04 OVMax= 1.61D-02

 Cycle   7  Pass 0  IDiag  1:
 E= -344.573146832253     Delta-E=       -0.000276807049 Rises=F Damp=F
 DIIS: error= 3.17D-04 at cycle   7 NSaved=   7.
 NSaved= 7 IEnMin= 7 EnMin= -344.573146832253     IErMin= 7 ErrMin= 3.17D-04
 ErrMax= 3.17D-04  0.00D+00 EMaxC= 1.00D-01 BMatC= 7.31D-05 BMatP= 1.91D-04
 IDIUse=3 WtCom= 9.97D-01 WtEn= 3.17D-03
 Coeff-Com: -0.153D-02 0.588D-02 0.336D-01-0.605D-01-0.235D+00 0.381D+00
 Coeff-Com:  0.876D+00
 Coeff-En:   0.000D+00 0.000D+00 0.000D+00 0.000D+00 0.000D+00 0.000D+00
 Coeff-En:   0.100D+01
 Coeff:     -0.153D-02 0.586D-02 0.335D-01-0.604D-01-0.234D+00 0.380D+00
 Coeff:      0.876D+00
 Gap=     0.283 Goal=   None    Shift=    0.000
 Gap=     0.321 Goal=   None    Shift=    0.000
 RMSDP=1.07D-04 MaxDP=1.85D-03 DE=-2.77D-04 OVMax= 8.29D-03

 Cycle   8  Pass 0  IDiag  1:
 E= -344.573229375742     Delta-E=       -0.000082543489 Rises=F Damp=F
 DIIS: error= 1.84D-04 at cycle   8 NSaved=   8.
 NSaved= 8 IEnMin= 8 EnMin= -344.573229375742     IErMin= 8 ErrMin= 1.84D-04
 ErrMax= 1.84D-04  0.00D+00 EMaxC= 1.00D-01 BMatC= 2.10D-05 BMatP= 7.31D-05
 IDIUse=3 WtCom= 9.98D-01 WtEn= 1.84D-03
 Coeff-Com: -0.745D-02 0.139D-01 0.631D-01 0.269D-01-0.182D+00-0.285D+00
 Coeff-Com:  0.255D+00 0.112D+01
 Coeff-En:   0.000D+00 0.000D+00 0.000D+00 0.000D+00 0.000D+00 0.000D+00
 Coeff-En:   0.000D+00 0.100D+01
 Coeff:     -0.744D-02 0.139D-01 0.630D-01 0.268D-01-0.182D+00-0.284D+00
 Coeff:      0.254D+00 0.112D+01
 Gap=     0.283 Goal=   None    Shift=    0.000
 Gap=     0.322 Goal=   None    Shift=    0.000
 RMSDP=9.88D-05 MaxDP=1.85D-03 DE=-8.25D-05 OVMax= 7.42D-03

 Cycle   9  Pass 0  IDiag  1:
 E= -344.573274015996     Delta-E=       -0.000044640254 Rises=F Damp=F
 DIIS: error= 8.46D-05 at cycle   9 NSaved=   9.
 NSaved= 9 IEnMin= 9 EnMin= -344.573274015996     IErMin= 9 ErrMin= 8.46D-05
 ErrMax= 8.46D-05  0.00D+00 EMaxC= 1.00D-01 BMatC= 6.20D-06 BMatP= 2.10D-05
 IDIUse=1 WtCom= 1.00D+00 WtEn= 0.00D+00
 Coeff-Com: -0.115D-02 0.185D-02-0.110D-02 0.832D-02 0.207D-01-0.133D+00
 Coeff-Com: -0.119D+00 0.208D+00 0.102D+01
 Coeff:     -0.115D-02 0.185D-02-0.110D-02 0.832D-02 0.207D-01-0.133D+00
 Coeff:     -0.119D+00 0.208D+00 0.102D+01
 Gap=     0.283 Goal=   None    Shift=    0.000
 Gap=     0.322 Goal=   None    Shift=    0.000
 RMSDP=4.77D-05 MaxDP=9.92D-04 DE=-4.46D-05 OVMax= 3.94D-03

 Failed to achieve initial convergence to 1.0D-08 in 10 cycles.
 Switch to full accuracy anyway.
 Cycle  10  Pass 1  IDiag  1:
 E= -344.573249740294     Delta-E=        0.000024275702 Rises=F Damp=F
 DIIS: error= 4.33D-05 at cycle   1 NSaved=   1.
 NSaved= 1 IEnMin= 1 EnMin= -344.573249740294     IErMin= 1 ErrMin= 4.33D-05
 ErrMax= 4.33D-05  0.00D+00 EMaxC= 1.00D-01 BMatC= 2.44D-06 BMatP= 2.44D-06
 IDIUse=1 WtCom= 1.00D+00 WtEn= 0.00D+00
 Coeff-Com:  0.100D+01
 Coeff:      0.100D+01
 Gap=     0.284 Goal=   None    Shift=    0.000
 Gap=     0.322 Goal=   None    Shift=    0.000
 RMSDP=4.77D-05 MaxDP=9.92D-04 DE= 2.43D-05 OVMax= 1.38D-03

 Cycle  11  Pass 1  IDiag  1:
 E= -344.573252859957     Delta-E=       -0.000003119663 Rises=F Damp=F
 DIIS: error= 4.48D-05 at cycle   2 NSaved=   2.
 NSaved= 2 IEnMin= 2 EnMin= -344.573252859957     IErMin= 1 ErrMin= 4.33D-05
 ErrMax= 4.48D-05  0.00D+00 EMaxC= 1.00D-01 BMatC= 1.21D-06 BMatP= 2.44D-06
 IDIUse=1 WtCom= 1.00D+00 WtEn= 0.00D+00
 Coeff-Com:  0.150D+00 0.850D+00
 Coeff:      0.150D+00 0.850D+00
 Gap=     0.284 Goal=   None    Shift=    0.000
 Gap=     0.322 Goal=   None    Shift=    0.000
 RMSDP=1.12D-05 MaxDP=2.60D-04 DE=-3.12D-06 OVMax= 9.79D-04

 Cycle  12  Pass 1  IDiag  1:
 E= -344.573254407048     Delta-E=       -0.000001547091 Rises=F Damp=F
 DIIS: error= 3.09D-05 at cycle   3 NSaved=   3.
 NSaved= 3 IEnMin= 3 EnMin= -344.573254407048     IErMin= 3 ErrMin= 3.09D-05
 ErrMax= 3.09D-05  0.00D+00 EMaxC= 1.00D-01 BMatC= 7.56D-07 BMatP= 1.21D-06
 IDIUse=1 WtCom= 1.00D+00 WtEn= 0.00D+00
 Coeff-Com: -0.445D+00 0.270D+00 0.117D+01
 Coeff:     -0.445D+00 0.270D+00 0.117D+01
 Gap=     0.284 Goal=   None    Shift=    0.000
 Gap=     0.322 Goal=   None    Shift=    0.000
 RMSDP=1.70D-05 MaxDP=3.87D-04 DE=-1.55D-06 OVMax= 1.34D-03

 Cycle  13  Pass 1  IDiag  1:
 E= -344.573256233085     Delta-E=       -0.000001826037 Rises=F Damp=F
 DIIS: error= 2.34D-05 at cycle   4 NSaved=   4.
 NSaved= 4 IEnMin= 4 EnMin= -344.573256233085     IErMin= 4 ErrMin= 2.34D-05
 ErrMax= 2.34D-05  0.00D+00 EMaxC= 1.00D-01 BMatC= 3.27D-07 BMatP= 7.56D-07
 IDIUse=1 WtCom= 1.00D+00 WtEn= 0.00D+00
 Coeff-Com: -0.183D+00-0.330D+00 0.318D+00 0.120D+01
 Coeff:     -0.183D+00-0.330D+00 0.318D+00 0.120D+01
 Gap=     0.284 Goal=   None    Shift=    0.000
 Gap=     0.322 Goal=   None    Shift=    0.000
 RMSDP=1.52D-05 MaxDP=3.19D-04 DE=-1.83D-06 OVMax= 1.29D-03

 Cycle  14  Pass 1  IDiag  1:
 E= -344.573257214934     Delta-E=       -0.000000981849 Rises=F Damp=F
 DIIS: error= 1.40D-05 at cycle   5 NSaved=   5.
 NSaved= 5 IEnMin= 5 EnMin= -344.573257214934     IErMin= 5 ErrMin= 1.40D-05
 ErrMax= 1.40D-05  0.00D+00 EMaxC= 1.00D-01 BMatC= 1.34D-07 BMatP= 3.27D-07
 IDIUse=1 WtCom= 1.00D+00 WtEn= 0.00D+00
 Coeff-Com:  0.136D+00-0.356D+00-0.450D+00 0.671D+00 0.999D+00
 Coeff:      0.136D+00-0.356D+00-0.450D+00 0.671D+00 0.999D+00
 Gap=     0.284 Goal=   None    Shift=    0.000
 Gap=     0.323 Goal=   None    Shift=    0.000
 RMSDP=1.25D-05 MaxDP=2.69D-04 DE=-9.82D-07 OVMax= 9.88D-04

 Cycle  15  Pass 1  IDiag  1:
 E= -344.573257568642     Delta-E=       -0.000000353708 Rises=F Damp=F
 DIIS: error= 7.17D-06 at cycle   6 NSaved=   6.
 NSaved= 6 IEnMin= 6 EnMin= -344.573257568642     IErMin= 6 ErrMin= 7.17D-06
 ErrMax= 7.17D-06  0.00D+00 EMaxC= 1.00D-01 BMatC= 2.66D-08 BMatP= 1.34D-07
 IDIUse=1 WtCom= 1.00D+00 WtEn= 0.00D+00
 Coeff-Com:  0.774D-01-0.730D-01-0.207D+00 0.310D-01 0.410D+00 0.762D+00
 Coeff:      0.774D-01-0.730D-01-0.207D+00 0.310D-01 0.410D+00 0.762D+00
 Gap=     0.284 Goal=   None    Shift=    0.000
 Gap=     0.323 Goal=   None    Shift=    0.000
 RMSDP=2.88D-06 MaxDP=6.16D-05 DE=-3.54D-07 OVMax= 2.61D-04

 Cycle  16  Pass 1  IDiag  1:
 E= -344.573257601967     Delta-E=       -0.000000033325 Rises=F Damp=F
 DIIS: error= 4.68D-06 at cycle   7 NSaved=   7.
 NSaved= 7 IEnMin= 7 EnMin= -344.573257601967     IErMin= 7 ErrMin= 4.68D-06
 ErrMax= 4.68D-06  0.00D+00 EMaxC= 1.00D-01 BMatC= 7.74D-09 BMatP= 2.66D-08
 IDIUse=1 WtCom= 1.00D+00 WtEn= 0.00D+00
 Coeff-Com: -0.404D-01 0.152D+00 0.154D+00-0.349D+00-0.304D+00 0.230D+00
 Coeff-Com:  0.116D+01
 Coeff:     -0.404D-01 0.152D+00 0.154D+00-0.349D+00-0.304D+00 0.230D+00
 Coeff:      0.116D+01
 Gap=     0.284 Goal=   None    Shift=    0.000
 Gap=     0.323 Goal=   None    Shift=    0.000
 RMSDP=2.66D-06 MaxDP=4.48D-05 DE=-3.33D-08 OVMax= 2.54D-04

 Cycle  17  Pass 1  IDiag  1:
 E= -344.573257618577     Delta-E=       -0.000000016610 Rises=F Damp=F
 DIIS: error= 2.08D-06 at cycle   8 NSaved=   8.
 NSaved= 8 IEnMin= 8 EnMin= -344.573257618577     IErMin= 8 ErrMin= 2.08D-06
 ErrMax= 2.08D-06  0.00D+00 EMaxC= 1.00D-01 BMatC= 1.10D-09 BMatP= 7.74D-09
 IDIUse=1 WtCom= 1.00D+00 WtEn= 0.00D+00
 Coeff-Com: -0.246D-01 0.511D-01 0.720D-01-0.904D-01-0.137D+00-0.959D-01
 Coeff-Com:  0.241D+00 0.983D+00
 Coeff:     -0.246D-01 0.511D-01 0.720D-01-0.904D-01-0.137D+00-0.959D-01
 Coeff:      0.241D+00 0.983D+00
 Gap=     0.284 Goal=   None    Shift=    0.000
 Gap=     0.323 Goal=   None    Shift=    0.000
 RMSDP=9.49D-07 MaxDP=1.81D-05 DE=-1.66D-08 OVMax= 9.98D-05

 Cycle  18  Pass 1  IDiag  1:
 E= -344.573257621145     Delta-E=       -0.000000002568 Rises=F Damp=F
 DIIS: error= 8.94D-07 at cycle   9 NSaved=   9.
 NSaved= 9 IEnMin= 9 EnMin= -344.573257621145     IErMin= 9 ErrMin= 8.94D-07
 ErrMax= 8.94D-07  0.00D+00 EMaxC= 1.00D-01 BMatC= 3.19D-10 BMatP= 1.10D-09
 IDIUse=1 WtCom= 1.00D+00 WtEn= 0.00D+00
 Coeff-Com:  0.355D-02-0.196D-01-0.197D-01 0.520D-01 0.382D-01-0.677D-01
 Coeff-Com: -0.203D+00 0.197D+00 0.102D+01
 Coeff:      0.355D-02-0.196D-01-0.197D-01 0.520D-01 0.382D-01-0.677D-01
 Coeff:     -0.203D+00 0.197D+00 0.102D+01
 Gap=     0.284 Goal=   None    Shift=    0.000
 Gap=     0.323 Goal=   None    Shift=    0.000
 RMSDP=4.24D-07 MaxDP=7.02D-06 DE=-2.57D-09 OVMax= 4.37D-05

 Cycle  19  Pass 1  IDiag  1:
 E= -344.573257621751     Delta-E=       -0.000000000606 Rises=F Damp=F
 DIIS: error= 4.39D-07 at cycle  10 NSaved=  10.
 NSaved=10 IEnMin=10 EnMin= -344.573257621751     IErMin=10 ErrMin= 4.39D-07
 ErrMax= 4.39D-07  0.00D+00 EMaxC= 1.00D-01 BMatC= 8.68D-11 BMatP= 3.19D-10
 IDIUse=1 WtCom= 1.00D+00 WtEn= 0.00D+00
 Coeff-Com:  0.853D-02-0.215D-01-0.289D-01 0.432D-01 0.557D-01 0.159D-01
 Coeff-Com: -0.135D+00-0.245D+00 0.259D+00 0.105D+01
 Coeff:      0.853D-02-0.215D-01-0.289D-01 0.432D-01 0.557D-01 0.159D-01
 Coeff:     -0.135D+00-0.245D+00 0.259D+00 0.105D+01
 Gap=     0.284 Goal=   None    Shift=    0.000
 Gap=     0.323 Goal=   None    Shift=    0.000
 RMSDP=2.07D-07 MaxDP=3.79D-06 DE=-6.06D-10 OVMax= 2.09D-05

 Cycle  20  Pass 1  IDiag  1:
 E= -344.573257621927     Delta-E=       -0.000000000176 Rises=F Damp=F
 DIIS: error= 2.15D-07 at cycle  11 NSaved=  11.
 NSaved=11 IEnMin=11 EnMin= -344.573257621927     IErMin=11 ErrMin= 2.15D-07
 ErrMax= 2.15D-07  0.00D+00 EMaxC= 1.00D-01 BMatC= 1.83D-11 BMatP= 8.68D-11
 IDIUse=1 WtCom= 1.00D+00 WtEn= 0.00D+00
 Coeff-Com: -0.456D-03 0.365D-02 0.326D-02-0.104D-01-0.650D-02 0.186D-01
 Coeff-Com:  0.417D-01-0.589D-01-0.239D+00 0.483D-01 0.120D+01
 Coeff:     -0.456D-03 0.365D-02 0.326D-02-0.104D-01-0.650D-02 0.186D-01
 Coeff:      0.417D-01-0.589D-01-0.239D+00 0.483D-01 0.120D+01
 Gap=     0.284 Goal=   None    Shift=    0.000
 Gap=     0.323 Goal=   None    Shift=    0.000
 RMSDP=1.01D-07 MaxDP=2.47D-06 DE=-1.76D-10 OVMax= 9.15D-06

 Cycle  21  Pass 1  IDiag  1:
 E= -344.573257621969     Delta-E=       -0.000000000042 Rises=F Damp=F
 DIIS: error= 1.32D-07 at cycle  12 NSaved=  12.
 NSaved=12 IEnMin=12 EnMin= -344.573257621969     IErMin=12 ErrMin= 1.32D-07
 ErrMax= 1.32D-07  0.00D+00 EMaxC= 1.00D-01 BMatC= 4.57D-12 BMatP= 1.83D-11
 IDIUse=1 WtCom= 1.00D+00 WtEn= 0.00D+00
 Coeff-Com: -0.201D-02 0.561D-02 0.745D-02-0.121D-01-0.148D-01 0.120D-02
 Coeff-Com:  0.417D-01 0.310D-01-0.113D+00-0.225D+00 0.301D+00 0.979D+00
 Coeff:     -0.201D-02 0.561D-02 0.745D-02-0.121D-01-0.148D-01 0.120D-02
 Coeff:      0.417D-01 0.310D-01-0.113D+00-0.225D+00 0.301D+00 0.979D+00
 Gap=     0.284 Goal=   None    Shift=    0.000
 Gap=     0.323 Goal=   None    Shift=    0.000
 RMSDP=4.33D-08 MaxDP=8.51D-07 DE=-4.16D-11 OVMax= 3.43D-06

 Cycle  22  Pass 1  IDiag  1:
 E= -344.573257621977     Delta-E=       -0.000000000008 Rises=F Damp=F
 DIIS: error= 4.62D-08 at cycle  13 NSaved=  13.
 NSaved=13 IEnMin=13 EnMin= -344.573257621977     IErMin=13 ErrMin= 4.62D-08
 ErrMax= 4.62D-08  0.00D+00 EMaxC= 1.00D-01 BMatC= 1.13D-12 BMatP= 4.57D-12
 IDIUse=1 WtCom= 1.00D+00 WtEn= 0.00D+00
 Coeff-Com: -0.174D-03-0.233D-03 0.499D-03 0.821D-03-0.969D-03-0.376D-02
 Coeff-Com: -0.197D-02 0.129D-01 0.520D-01-0.462D-01-0.257D+00 0.157D+00
 Coeff-Com:  0.109D+01
 Coeff:     -0.174D-03-0.233D-03 0.499D-03 0.821D-03-0.969D-03-0.376D-02
 Coeff:     -0.197D-02 0.129D-01 0.520D-01-0.462D-01-0.257D+00 0.157D+00
 Coeff:      0.109D+01
 Gap=     0.284 Goal=   None    Shift=    0.000
 Gap=     0.323 Goal=   None    Shift=    0.000
 RMSDP=1.96D-08 MaxDP=4.06D-07 DE=-8.19D-12 OVMax= 1.83D-06

 Cycle  23  Pass 1  IDiag  1:
 E= -344.573257621979     Delta-E=       -0.000000000002 Rises=F Damp=F
 DIIS: error= 1.94D-08 at cycle  14 NSaved=  14.
 NSaved=14 IEnMin=14 EnMin= -344.573257621979     IErMin=14 ErrMin= 1.94D-08
 ErrMax= 1.94D-08  0.00D+00 EMaxC= 1.00D-01 BMatC= 1.86D-13 BMatP= 1.13D-12
 IDIUse=1 WtCom= 1.00D+00 WtEn= 0.00D+00
 Coeff-Com:  0.478D-03-0.149D-02-0.161D-02 0.306D-02 0.332D-02-0.563D-03
 Coeff-Com: -0.100D-01-0.101D-01 0.358D-01 0.551D-01-0.988D-01-0.217D+00
 Coeff-Com:  0.594D-01 0.118D+01
 Coeff:      0.478D-03-0.149D-02-0.161D-02 0.306D-02 0.332D-02-0.563D-03
 Coeff:     -0.100D-01-0.101D-01 0.358D-01 0.551D-01-0.988D-01-0.217D+00
 Coeff:      0.594D-01 0.118D+01
 Gap=     0.284 Goal=   None    Shift=    0.000
 Gap=     0.323 Goal=   None    Shift=    0.000
 RMSDP=9.20D-09 MaxDP=1.54D-07 DE=-2.05D-12 OVMax= 9.25D-07

 SCF Done:  E(UwB97XD) =  -344.573257622     A.U. after   23 cycles
            NFock= 23  Conv=0.92D-08     -V/T= 2.0081
 <Sx>= 0.0000 <Sy>= 0.0000 <Sz>= 0.5000 <S**2>= 0.7983 S= 0.5239
 <L.S>=  0.00000000000    
 KE= 3.417893217878D+02 PE=-1.399172231050D+03 EE= 4.155760799011D+02
 Annihilation of the first spin contaminant:
 S**2 before annihilation     0.7983,   after     0.7512
 Leave Link  502 at Tue May 20 11:14:33 2025, MaxMem=  3758096384 cpu:              65.7 elap:              12.9
 (Enter /gpfs/fs1/soft/bebop/software/custom-built/gaussian/16-c.02/g16/l508.exe)
 QCSCF skips out because SCF is already converged.
 Leave Link  508 at Tue May 20 11:14:33 2025, MaxMem=  3758096384 cpu:               0.0 elap:               0.0
 (Enter /gpfs/fs1/soft/bebop/software/custom-built/gaussian/16-c.02/g16/l601.exe)
 Copying SCF densities to generalized density rwf, IOpCl= 1 IROHF=0.

 **********************************************************************

            Population analysis using the SCF Density.

 **********************************************************************

 Orbital symmetries:
 Alpha Orbitals:
       Occupied  (A) (A) (A) (A) (A) (A) (A) (A) (A) (A) (A) (A)
                 (A) (A) (A) (A) (A) (A) (A) (A) (A) (A) (A) (A)
                 (A) (A) (A)
       Virtual   (A) (A) (A) (A) (A) (A) (A) (A) (A) (A) (A) (A)
                 (A) (A) (A) (A) (A) (A) (A) (A) (A) (A) (A) (A)
                 (A) (A) (A) (A) (A) (A) (A) (A) (A) (A) (A) (A)
                 (A) (A) (A) (A) (A) (A) (A) (A) (A) (A) (A) (A)
                 (A) (A) (A) (A) (A) (A) (A) (A) (A) (A) (A) (A)
                 (A) (A) (A) (A) (A) (A) (A) (A) (A) (A) (A) (A)
                 (A) (A) (A) (A) (A) (A) (A) (A) (A) (A) (A) (A)
                 (A) (A) (A) (A) (A) (A) (A) (A) (A) (A) (A) (A)
                 (A) (A) (A) (A) (A) (A) (A) (A) (A) (A)
 Beta  Orbitals:
       Occupied  (A) (A) (A) (A) (A) (A) (A) (A) (A) (A) (A) (A)
                 (A) (A) (A) (A) (A) (A) (A) (A) (A) (A) (A) (A)
                 (A) (A)
       Virtual   (A) (A) (A) (A) (A) (A) (A) (A) (A) (A) (A) (A)
                 (A) (A) (A) (A) (A) (A) (A) (A) (A) (A) (A) (A)
                 (A) (A) (A) (A) (A) (A) (A) (A) (A) (A) (A) (A)
                 (A) (A) (A) (A) (A) (A) (A) (A) (A) (A) (A) (A)
                 (A) (A) (A) (A) (A) (A) (A) (A) (A) (A) (A) (A)
                 (A) (A) (A) (A) (A) (A) (A) (A) (A) (A) (A) (A)
                 (A) (A) (A) (A) (A) (A) (A) (A) (A) (A) (A) (A)
                 (A) (A) (A) (A) (A) (A) (A) (A) (A) (A) (A) (A)
                 (A) (A) (A) (A) (A) (A) (A) (A) (A) (A) (A)
 The electronic state is 2-A.
 Alpha  occ. eigenvalues --  -19.34043 -19.32164 -10.35848 -10.29870 -10.29567
 Alpha  occ. eigenvalues --  -10.29374 -10.29348  -1.24787  -1.03412  -0.91958
 Alpha  occ. eigenvalues --   -0.82784  -0.76980  -0.67434  -0.65712  -0.62387
 Alpha  occ. eigenvalues --   -0.59063  -0.57657  -0.54333  -0.50602  -0.48541
 Alpha  occ. eigenvalues --   -0.46574  -0.45494  -0.43880  -0.39288  -0.38753
 Alpha  occ. eigenvalues --   -0.31899  -0.23504
 Alpha virt. eigenvalues --    0.04866   0.11176   0.14179   0.14751   0.16734
 Alpha virt. eigenvalues --    0.18234   0.20000   0.22298   0.22760   0.24838
 Alpha virt. eigenvalues --    0.29377   0.36209   0.38684   0.44258   0.45928
 Alpha virt. eigenvalues --    0.48391   0.51927   0.52813   0.55329   0.57219
 Alpha virt. eigenvalues --    0.58597   0.60780   0.62077   0.64441   0.67045
 Alpha virt. eigenvalues --    0.67375   0.71822   0.72272   0.73420   0.73794
 Alpha virt. eigenvalues --    0.75294   0.77174   0.79071   0.80517   0.84238
 Alpha virt. eigenvalues --    0.85291   0.86308   0.90962   0.91927   0.98713
 Alpha virt. eigenvalues --    1.01663   1.03890   1.08472   1.12025   1.17080
 Alpha virt. eigenvalues --    1.18493   1.21948   1.32333   1.34640   1.36022
 Alpha virt. eigenvalues --    1.41584   1.44417   1.48061   1.51542   1.58844
 Alpha virt. eigenvalues --    1.66879   1.70202   1.70711   1.71840   1.74328
 Alpha virt. eigenvalues --    1.76888   1.78577   1.83476   1.84132   1.86552
 Alpha virt. eigenvalues --    1.87936   1.90370   1.94107   1.95948   2.00230
 Alpha virt. eigenvalues --    2.03966   2.05277   2.11061   2.12031   2.16347
 Alpha virt. eigenvalues --    2.18001   2.25539   2.26877   2.27652   2.31238
 Alpha virt. eigenvalues --    2.39727   2.43039   2.47331   2.48814   2.51918
 Alpha virt. eigenvalues --    2.52739   2.55479   2.61602   2.64430   2.71687
 Alpha virt. eigenvalues --    2.78445   2.84890   2.86676   2.88199   2.92737
 Alpha virt. eigenvalues --    3.01692   3.03213   3.06165   3.15676   3.17656
 Alpha virt. eigenvalues --    3.24199   3.37377   3.44324   3.57767   3.65365
 Alpha virt. eigenvalues --    3.96690
  Beta  occ. eigenvalues --  -19.33965 -19.32129 -10.35492 -10.30174 -10.29546
  Beta  occ. eigenvalues --  -10.28941 -10.28547  -1.24612  -1.03078  -0.91231
  Beta  occ. eigenvalues --   -0.82060  -0.75066  -0.66894  -0.65344  -0.61710
  Beta  occ. eigenvalues --   -0.58782  -0.57168  -0.53748  -0.50029  -0.48096
  Beta  occ. eigenvalues --   -0.45853  -0.44910  -0.43481  -0.38395  -0.36584
  Beta  occ. eigenvalues --   -0.30778
  Beta virt. eigenvalues --    0.01476   0.05310   0.12021   0.14479   0.16767
  Beta virt. eigenvalues --    0.17245   0.18488   0.20944   0.22745   0.23110
  Beta virt. eigenvalues --    0.25108   0.29942   0.36507   0.38907   0.44668
  Beta virt. eigenvalues --    0.46196   0.48769   0.52586   0.53088   0.55945
  Beta virt. eigenvalues --    0.57682   0.59443   0.61540   0.62526   0.65479
  Beta virt. eigenvalues --    0.67240   0.68126   0.72213   0.73043   0.74149
  Beta virt. eigenvalues --    0.74564   0.75901   0.77633   0.79807   0.80871
  Beta virt. eigenvalues --    0.84562   0.85576   0.86822   0.91673   0.92198
  Beta virt. eigenvalues --    0.98945   1.01793   1.04290   1.08681   1.12218
  Beta virt. eigenvalues --    1.17389   1.19087   1.22349   1.32703   1.35663
  Beta virt. eigenvalues --    1.36255   1.42038   1.44892   1.48424   1.51829
  Beta virt. eigenvalues --    1.59309   1.67064   1.70622   1.71050   1.72253
  Beta virt. eigenvalues --    1.74492   1.77394   1.78848   1.84284   1.84723
  Beta virt. eigenvalues --    1.86977   1.88167   1.91178   1.94838   1.97142
  Beta virt. eigenvalues --    2.01006   2.04553   2.05894   2.11301   2.13105
  Beta virt. eigenvalues --    2.17053   2.18707   2.26437   2.27102   2.28725
  Beta virt. eigenvalues --    2.32515   2.40623   2.43869   2.48256   2.49080
  Beta virt. eigenvalues --    2.52324   2.52971   2.56438   2.62766   2.65109
  Beta virt. eigenvalues --    2.72082   2.78891   2.85183   2.87106   2.88854
  Beta virt. eigenvalues --    2.93523   3.01731   3.03770   3.06688   3.16102
  Beta virt. eigenvalues --    3.17860   3.24658   3.37649   3.44610   3.58137
  Beta virt. eigenvalues --    3.65434   3.96802
          Condensed to atoms (all electrons):
               1          2          3          4          5          6
     1  C    5.001649   0.361290   0.408332  -0.051476  -0.048431  -0.075007
     2  C    0.361290   4.991599  -0.046632   0.464402   0.426093  -0.054049
     3  H    0.408332  -0.046632   0.630601   0.006597  -0.003141  -0.000136
     4  C   -0.051476   0.464402   0.006597   4.822226  -0.050445   0.518245
     5  H   -0.048431   0.426093  -0.003141  -0.050445   0.636720   0.009660
     6  C   -0.075007  -0.054049  -0.000136   0.518245   0.009660   5.047846
     7  H    0.009040  -0.046074  -0.000305   0.420210  -0.007220  -0.047573
     8  H   -0.007721  -0.024208   0.000388  -0.000667  -0.000295   0.373447
     9  H    0.003389   0.009336  -0.000012  -0.021190  -0.000175   0.376662
    10  C    0.513389  -0.050803  -0.027331  -0.036271   0.009351  -0.048351
    11  H   -0.035012   0.008142  -0.011690   0.003408  -0.000279  -0.005183
    12  O   -0.042702  -0.002893   0.002630  -0.008962   0.000002  -0.035502
    13  O    0.003879  -0.000580  -0.000049   0.000680   0.000010   0.004117
    14  H   -0.000416   0.000052  -0.000001   0.000035  -0.000002  -0.000735
               7          8          9         10         11         12
     1  C    0.009040  -0.007721   0.003389   0.513389  -0.035012  -0.042702
     2  C   -0.046074  -0.024208   0.009336  -0.050803   0.008142  -0.002893
     3  H   -0.000305   0.000388  -0.000012  -0.027331  -0.011690   0.002630
     4  C    0.420210  -0.000667  -0.021190  -0.036271   0.003408  -0.008962
     5  H   -0.007220  -0.000295  -0.000175   0.009351  -0.000279   0.000002
     6  C   -0.047573   0.373447   0.376662  -0.048351  -0.005183  -0.035502
     7  H    0.640831   0.004964  -0.010718   0.002367  -0.000006  -0.000473
     8  H    0.004964   0.602567  -0.035378   0.015607   0.005857  -0.013226
     9  H   -0.010718  -0.035378   0.641829   0.000655  -0.000250  -0.000234
    10  C    0.002367   0.015607   0.000655   4.912377   0.391051   0.279373
    11  H   -0.000006   0.005857  -0.000250   0.391051   0.624163  -0.036301
    12  O   -0.000473  -0.013226  -0.000234   0.279373  -0.036301   7.978301
    13  O    0.000008   0.000414  -0.000016  -0.052295   0.008658   0.099640
    14  H   -0.000001   0.000200   0.000012   0.002603   0.001737  -0.017843
              13         14
     1  C    0.003879  -0.000416
     2  C   -0.000580   0.000052
     3  H   -0.000049  -0.000001
     4  C    0.000680   0.000035
     5  H    0.000010  -0.000002
     6  C    0.004117  -0.000735
     7  H    0.000008  -0.000001
     8  H    0.000414   0.000200
     9  H   -0.000016   0.000012
    10  C   -0.052295   0.002603
    11  H    0.008658   0.001737
    12  O    0.099640  -0.017843
    13  O    7.767150   0.312510
    14  H    0.312510   0.501776
          Atomic-Atomic Spin Densities.
               1          2          3          4          5          6
     1  C   -0.152139  -0.051452   0.004085   0.012158   0.000512  -0.016854
     2  C   -0.051452   0.669057  -0.007471  -0.008037   0.006045  -0.022449
     3  H    0.004085  -0.007471   0.020380   0.000746  -0.000096  -0.001888
     4  C    0.012158  -0.008037   0.000746  -0.281999   0.000389  -0.017153
     5  H    0.000512   0.006045  -0.000096   0.000389  -0.033031  -0.000327
     6  C   -0.016854  -0.022449  -0.001888  -0.017153  -0.000327   0.851338
     7  H   -0.000221  -0.003996  -0.000050   0.002883   0.000108  -0.002275
     8  H    0.004666  -0.000943   0.000300   0.001962  -0.000008  -0.006857
     9  H   -0.000029  -0.000432   0.000022  -0.000644   0.000012  -0.001633
    10  C    0.041752  -0.020581  -0.002896   0.003795  -0.000520  -0.090220
    11  H   -0.001183   0.000050   0.000302  -0.000179   0.000014   0.000229
    12  O    0.000532   0.003739   0.000340   0.004319  -0.000008  -0.037602
    13  O   -0.000000  -0.000125  -0.000008  -0.000158  -0.000000   0.002381
    14  H   -0.000016  -0.000022  -0.000004   0.000000   0.000000   0.000703
               7          8          9         10         11         12
     1  C   -0.000221   0.004666  -0.000029   0.041752  -0.001183   0.000532
     2  C   -0.003996  -0.000943  -0.000432  -0.020581   0.000050   0.003739
     3  H   -0.000050   0.000300   0.000022  -0.002896   0.000302   0.000340
     4  C    0.002883   0.001962  -0.000644   0.003795  -0.000179   0.004319
     5  H    0.000108  -0.000008   0.000012  -0.000520   0.000014  -0.000008
     6  C   -0.002275  -0.006857  -0.001633  -0.090220   0.000229  -0.037602
     7  H    0.023409  -0.000489  -0.000586  -0.000664  -0.000000  -0.000190
     8  H   -0.000489  -0.031518   0.003204   0.003994  -0.000084   0.002263
     9  H   -0.000586   0.003204  -0.029163   0.002845   0.000015   0.000101
    10  C   -0.000664   0.003994   0.002845   0.341381   0.002444  -0.017497
    11  H   -0.000000  -0.000084   0.000015   0.002444  -0.016493   0.000439
    12  O   -0.000190   0.002263   0.000101  -0.017497   0.000439   0.050494
    13  O    0.000004  -0.000149  -0.000012  -0.001062   0.000478  -0.004904
    14  H    0.000003  -0.000031  -0.000043   0.000299  -0.000068  -0.000759
              13         14
     1  C   -0.000000  -0.000016
     2  C   -0.000125  -0.000022
     3  H   -0.000008  -0.000004
     4  C   -0.000158   0.000000
     5  H   -0.000000   0.000000
     6  C    0.002381   0.000703
     7  H    0.000004   0.000003
     8  H   -0.000149  -0.000031
     9  H   -0.000012  -0.000043
    10  C   -0.001062   0.000299
    11  H    0.000478  -0.000068
    12  O   -0.004904  -0.000759
    13  O    0.017844   0.000097
    14  H    0.000097  -0.000271
 Mulliken charges and spin densities:
               1          2
     1  C   -0.040204  -0.158189
     2  C   -0.035675   0.563384
     3  H    0.040748   0.013762
     4  C   -0.066793  -0.281917
     5  H    0.028153  -0.026909
     6  C   -0.063442   0.657394
     7  H    0.034950   0.017935
     8  H    0.078052  -0.023691
     9  H    0.036091  -0.026343
    10  C    0.088278   0.263069
    11  H    0.045705  -0.014037
    12  O   -0.201810   0.001267
    13  O   -0.144127   0.014386
    14  H    0.200073  -0.000111
 Sum of Mulliken charges =  -0.00000   1.00000
 Mulliken charges and spin densities with hydrogens summed into heavy atoms:
               1          2
     1  C    0.000544  -0.144427
     2  C   -0.007522   0.536475
     4  C   -0.031843  -0.263981
     6  C    0.050701   0.607360
    10  C    0.133983   0.249032
    12  O   -0.201810   0.001267
    13  O    0.055946   0.014275
 Electronic spatial extent (au):  <R**2>=            732.3871
 Charge=             -0.0000 electrons
 Dipole moment (field-independent basis, Debye):
    X=             -0.7280    Y=              0.9402    Z=              1.0340  Tot=              1.5758
 Quadrupole moment (field-independent basis, Debye-Ang):
   XX=            -37.5507   YY=            -38.5922   ZZ=            -42.0284
   XY=             -4.7930   XZ=             -3.0464   YZ=             -1.7249
 Traceless Quadrupole moment (field-independent basis, Debye-Ang):
   XX=              1.8397   YY=              0.7982   ZZ=             -2.6379
   XY=             -4.7930   XZ=             -3.0464   YZ=             -1.7249
 Octapole moment (field-independent basis, Debye-Ang**2):
  XXX=            -33.1416  YYY=              3.2733  ZZZ=             -0.8170  XYY=             -7.6244
  XXY=             12.2816  XXZ=             -5.6923  XZZ=             -6.0661  YZZ=              0.1709
  YYZ=              0.2703  XYZ=              0.2398
 Hexadecapole moment (field-independent basis, Debye-Ang**3):
 XXXX=           -510.2464 YYYY=           -246.6962 ZZZZ=           -105.0781 XXXY=            -49.0918
 XXXZ=            -11.2555 YYYX=            -11.1331 YYYZ=             -9.1579 ZZZX=              1.5289
 ZZZY=             -3.0340 XXYY=           -121.8394 XXZZ=           -112.4692 YYZZ=            -59.7536
 XXYZ=             -6.3683 YYXZ=             -1.7177 ZZXY=             -1.5277
 N-N= 2.972335717395D+02 E-N=-1.399172230869D+03  KE= 3.417893217878D+02
                          Isotropic Fermi Contact Couplings
        Atom                 a.u.       MegaHertz       Gauss      10(-4) cm-1
     1  C(13)             -0.04773     -53.65359     -19.14493     -17.89691
     2  C(13)              0.09993     112.34604      40.08786      37.47460
     3  H(1)               0.00557      24.91365       8.88981       8.31030
     4  C(13)             -0.07677     -86.29864     -30.79350     -28.78613
     5  H(1)              -0.00838     -37.45538     -13.36501     -12.49377
     6  C(13)              0.17121     192.47113      68.67849      64.20146
     7  H(1)               0.00692      30.94327      11.04133      10.32156
     8  H(1)              -0.00887     -39.65779     -14.15089     -13.22842
     9  H(1)              -0.00697     -31.15099     -11.11545     -10.39085
    10  C(13)              0.05644      63.45099      22.64089      21.16497
    11  H(1)              -0.00432     -19.31013      -6.89034      -6.44117
    12  O(17)              0.15161     -91.90780     -32.79499     -30.65714
    13  O(17)             -0.00125       0.76019       0.27125       0.25357
    14  H(1)              -0.00019      -0.85947      -0.30668      -0.28669
 --------------------------------------------------------
       Center         ----  Spin Dipole Couplings  ----
                      3XX-RR        3YY-RR        3ZZ-RR
 --------------------------------------------------------
     1   Atom        0.041444      0.014817     -0.056261
     2   Atom       -0.041845     -0.279473      0.321317
     3   Atom        0.003419      0.003180     -0.006599
     4   Atom       -0.060419      0.106883     -0.046464
     5   Atom        0.018886     -0.023740      0.004854
     6   Atom        0.401894     -0.223046     -0.178848
     7   Atom       -0.001247      0.003796     -0.002549
     8   Atom       -0.022960     -0.017842      0.040802
     9   Atom       -0.009251      0.048143     -0.038892
    10   Atom       -0.111140      0.050588      0.060553
    11   Atom       -0.000637     -0.005855      0.006492
    12   Atom       -0.037441     -0.007335      0.044776
    13   Atom        0.051187     -0.019266     -0.031920
    14   Atom        0.005394     -0.000242     -0.005151
 --------------------------------------------------------
                        XY            XZ            YZ
 --------------------------------------------------------
     1   Atom       -0.029931     -0.053961     -0.060942
     2   Atom       -0.045658      0.372092     -0.057835
     3   Atom       -0.001499     -0.004901      0.000214
     4   Atom       -0.016085     -0.168969      0.007898
     5   Atom       -0.027921     -0.011333      0.013794
     6   Atom        0.292484      0.354717      0.129404
     7   Atom       -0.005933     -0.006479      0.006863
     8   Atom        0.014180      0.005540     -0.032207
     9   Atom       -0.010464      0.016588      0.003085
    10   Atom        0.110101      0.100082      0.216511
    11   Atom        0.017790     -0.014873     -0.003804
    12   Atom       -0.021198     -0.007749      0.068332
    13   Atom        0.039484      0.015600      0.004137
    14   Atom       -0.002940      0.001734      0.000149
 --------------------------------------------------------


 ---------------------------------------------------------------------------------
              Anisotropic Spin Dipole Couplings in Principal Axis System
 ---------------------------------------------------------------------------------

       Atom             a.u.   MegaHertz   Gauss  10(-4) cm-1        Axes

              Baa    -0.1155   -15.502    -5.532    -5.171  0.3658  0.4618  0.8080
     1 C(13)  Bbb     0.0498     6.680     2.384     2.228 -0.0495  0.8766 -0.4786
              Bcc     0.0657     8.822     3.148     2.943  0.9294 -0.1351 -0.3436
 
              Baa    -0.2900   -38.914   -13.885   -12.980  0.4279  0.8864 -0.1766
     2 C(13)  Bbb    -0.2702   -36.254   -12.936   -12.093  0.7332 -0.4546 -0.5057
              Bcc     0.5602    75.168    26.822    25.073  0.5285 -0.0869  0.8445
 
              Baa    -0.0086    -4.593    -1.639    -1.532  0.3805  0.0316  0.9242
     3 H(1)   Bbb     0.0025     1.314     0.469     0.438  0.4006  0.8951 -0.1955
              Bcc     0.0061     3.280     1.170     1.094  0.8335 -0.4447 -0.3280
 
              Baa    -0.2227   -29.880   -10.662    -9.967  0.7221  0.0187  0.6916
     4 C(13)  Bbb     0.0940    12.608     4.499     4.205  0.4131  0.7903 -0.4526
              Bcc     0.1287    17.273     6.163     5.762 -0.5550  0.6125  0.5629
 
              Baa    -0.0389   -20.754    -7.406    -6.923  0.3991  0.8991 -0.1801
     5 H(1)   Bbb    -0.0014    -0.757    -0.270    -0.252  0.4595 -0.0262  0.8878
              Bcc     0.0403    21.511     7.676     7.175  0.7934 -0.4371 -0.4236
 
              Baa    -0.3509   -47.093   -16.804   -15.708 -0.5165  0.4349  0.7376
     6 C(13)  Bbb    -0.3319   -44.531   -15.890   -14.854 -0.0710  0.8367 -0.5430
              Bcc     0.6828    91.624    32.694    30.562  0.8533  0.3329  0.4013
 
              Baa    -0.0086    -4.592    -1.638    -1.532  0.5686 -0.1730  0.8042
     7 H(1)   Bbb    -0.0046    -2.475    -0.883    -0.826  0.6445  0.7013 -0.3048
              Bcc     0.0132     7.067     2.522     2.357 -0.5112  0.6916  0.5102
 
              Baa    -0.0434   -23.155    -8.262    -7.724 -0.5971  0.7353  0.3206
     8 H(1)   Bbb    -0.0116    -6.213    -2.217    -2.072  0.8021  0.5429  0.2487
              Bcc     0.0550    29.367    10.479     9.796 -0.0088 -0.4056  0.9140
 
              Baa    -0.0469   -24.999    -8.920    -8.339 -0.4200 -0.0756  0.9044
     9 H(1)   Bbb    -0.0031    -1.674    -0.597    -0.558  0.8908  0.1561  0.4268
              Bcc     0.0500    26.673     9.518     8.897 -0.1734  0.9848  0.0018
 
              Baa    -0.1698   -22.788    -8.131    -7.601  0.6890 -0.6530  0.3144
    10 C(13)  Bbb    -0.1532   -20.552    -7.333    -6.855 -0.6483 -0.3616  0.6700
              Bcc     0.3230    43.340    15.465    14.457  0.3238  0.6655  0.6725
 
              Baa    -0.0231   -12.340    -4.403    -4.116  0.7001 -0.6624  0.2665
    11 H(1)   Bbb    -0.0022    -1.172    -0.418    -0.391  0.2834  0.6004  0.7478
              Bcc     0.0253    13.512     4.822     4.507  0.6554  0.4481 -0.6080
 
              Baa    -0.0620     4.488     1.602     1.497  0.5030  0.7441 -0.4396
    12 O(17)  Bbb    -0.0324     2.345     0.837     0.782  0.8530 -0.3454  0.3914
              Bcc     0.0944    -6.834    -2.438    -2.280 -0.1394  0.5718  0.8084
 
              Baa    -0.0385     2.789     0.995     0.930 -0.4182  0.7450  0.5197
    13 O(17)  Bbb    -0.0328     2.373     0.847     0.791  0.0946 -0.5333  0.8406
              Bcc     0.0713    -5.162    -1.842    -1.722  0.9034  0.4007  0.1525
 
              Baa    -0.0055    -2.941    -1.049    -0.981 -0.1908 -0.1340  0.9724
    14 H(1)   Bbb    -0.0013    -0.712    -0.254    -0.237  0.3501  0.9162  0.1949
              Bcc     0.0068     3.653     1.303     1.218  0.9171 -0.3777  0.1278
 

 ---------------------------------------------------------------------------------

 No NMR shielding tensors so no spin-rotation constants.
 Leave Link  601 at Tue May 20 11:14:33 2025, MaxMem=  3758096384 cpu:               0.8 elap:               0.2
 (Enter /gpfs/fs1/soft/bebop/software/custom-built/gaussian/16-c.02/g16/l701.exe)
 ... and contract with generalized density number  0.
 Compute integral first derivatives.
 R6Disp: Adding Grimme-D2 dispersion energy 1st derivatives to the gradient.
   1 Symmetry operations used in ECPInt.
 ECPInt:  NShTT=    2016 NPrTT=    7252 LenC2=    2008 LenP2D=    5978.
 LDataN:  DoStor=T MaxTD1= 5 Len=  102
 Leave Link  701 at Tue May 20 11:14:33 2025, MaxMem=  3758096384 cpu:               0.6 elap:               0.1
 (Enter /gpfs/fs1/soft/bebop/software/custom-built/gaussian/16-c.02/g16/l702.exe)
 L702 exits ... SP integral derivatives will be done elsewhere.
 Leave Link  702 at Tue May 20 11:14:33 2025, MaxMem=  3758096384 cpu:               0.1 elap:               0.0
 (Enter /gpfs/fs1/soft/bebop/software/custom-built/gaussian/16-c.02/g16/l703.exe)
 Integral derivatives from FoFJK, PRISM(SPDF).
 Compute integral first derivatives, UseDBF=F ICtDFT=           0.
 Calling FoFJK, ICntrl=      2127 FMM=F ISym2X=0 I1Cent= 0 IOpClX= 1 NMat=1 NMatS=1 NMatT=0.
 FoFJK:  IHMeth= 1 ICntrl=    2127 DoSepK=T KAlg= 0 I1Cent=           0 FoldK=F
 IRaf=         1 NMat=       1 IRICut=       1 DoRegI=T DoRafI=F ISym2E= 0 IDoP0=0 IntGTp=1.
 FoFCou: FMM=F IPFlag=           0 FMFlag=      100000 FMFlg1=         800
         NFxFlg=           0 DoJE=F BraDBF=F KetDBF=F FulRan=T
         wScrn=  0.000000 ICntrl=      2527 IOpCl=  0 I1Cent=           0 NGrid=           0
         NMat0=    1 NMatS0=      1 NMatT0=    0 NMatD0=    1 NMtDS0=    0 NMtDT0=    0
 Symmetry not used in FoFCou.
 Leave Link  703 at Tue May 20 11:14:35 2025, MaxMem=  3758096384 cpu:              12.7 elap:               2.1
 (Enter /gpfs/fs1/soft/bebop/software/custom-built/gaussian/16-c.02/g16/l716.exe)
 Dipole        =-2.86404215D-01 3.69907757D-01 4.06811468D-01
 ***** Axes restored to original set *****
 -------------------------------------------------------------------
 Center     Atomic                   Forces (Hartrees/Bohr)
 Number     Number              X              Y              Z
 -------------------------------------------------------------------
      1        6          -0.000673870   -0.001047470    0.006657163
      2        6           0.001957602    0.001244208    0.001614122
      3        1          -0.001265565    0.000101307   -0.000922486
      4        6           0.001287111   -0.000198095    0.001013553
      5        1          -0.000235477    0.000042742    0.000374496
      6        6          -0.014541074   -0.042416292    0.052158446
      7        1           0.000068883   -0.000155987   -0.000017730
      8        1           0.000269222   -0.001206918    0.000412726
      9        1          -0.000072430   -0.000003787   -0.000118075
     10        6           0.016452069    0.042173255   -0.059330357
     11        1          -0.001927906   -0.001161740   -0.000351654
     12        8          -0.000807451    0.001645089   -0.000914563
     13        8          -0.000560993    0.000974601   -0.000623488
     14        1           0.000049879    0.000009086    0.000047848
 -------------------------------------------------------------------
 Cartesian Forces:  Max     0.059330357 RMS     0.015715069
 -----------------------------------------------------------------------------------------------
                       Internal Coordinate Forces (Hartree/Bohr or radian)
  Cent   Atom   N1       Length/X         N2         Alpha/Y        N3         Beta/Z          J
 -----------------------------------------------------------------------------------------------
      1  C 
      2  C        1  -0.006157(     1)
      3  H        1  -0.000554(     2)      2   0.003027(    14)
      4  C        2  -0.003421(     3)      1  -0.008483(    15)      3  -0.000148(    26)     0
      5  H        2   0.000073(     4)      1   0.000832(    16)      4   0.000291(    27)     0
      6  C        4   0.005729(     5)      2   0.011129(    17)      1   0.001209(    28)     0
      7  H        4  -0.000043(     6)      2   0.000138(    18)      6  -0.000269(    29)     0
      8  H        6   0.000245(     7)      4   0.000525(    19)      2  -0.000540(    30)     0
      9  H        6   0.000021(     8)      4   0.000238(    20)      8   0.000135(    31)     0
     10  C        6   0.076822(     9)      4   0.028654(    21)      8  -0.002802(    32)     0
     11  H       10   0.000479(    10)      6  -0.003247(    22)      4   0.003785(    33)     0
     12  O       10   0.001348(    11)      6   0.006014(    23)     11   0.001280(    34)     0
     13  O       12   0.001012(    12)     10   0.000715(    24)      1  -0.001726(    35)     0
     14  H       13  -0.000041(    13)     12  -0.000100(    25)     10   0.000024(    36)     0
 -----------------------------------------------------------------------------------------------
 Internal  Forces:  Max     0.076822488 RMS     0.014034289
 Force constants in internal coordinates: 
                1             2             3             4             5 
      1  0.643557D+00
      2  0.000000D+00  0.344113D+00
      3 -0.495310D-01  0.000000D+00  0.718028D+00
      4  0.000000D+00  0.000000D+00  0.000000D+00  0.347665D+00
      5 -0.236579D+00  0.000000D+00  0.242067D+00  0.000000D+00  0.879105D+00
      6  0.000000D+00  0.000000D+00  0.000000D+00  0.000000D+00  0.000000D+00
      7  0.000000D+00  0.000000D+00  0.000000D+00  0.000000D+00  0.000000D+00
      8  0.000000D+00  0.000000D+00  0.000000D+00  0.000000D+00  0.000000D+00
      9 -0.111597D+00  0.000000D+00 -0.941543D-01  0.000000D+00  0.234475D-01
     10  0.000000D+00  0.000000D+00  0.000000D+00  0.000000D+00  0.000000D+00
     11  0.000000D+00  0.000000D+00  0.000000D+00  0.000000D+00  0.000000D+00
     12  0.000000D+00  0.000000D+00  0.000000D+00  0.000000D+00  0.000000D+00
     13  0.000000D+00  0.000000D+00  0.000000D+00  0.000000D+00  0.000000D+00
     14 -0.525611D-01  0.000000D+00 -0.389037D-01  0.000000D+00  0.194473D-01
     15 -0.256935D+00  0.000000D+00  0.906616D+00  0.000000D+00  0.914548D+00
     16  0.000000D+00  0.000000D+00  0.000000D+00  0.000000D+00  0.000000D+00
     17 -0.885636D+00  0.000000D+00  0.121302D+01  0.000000D+00  0.171278D+01
     18  0.000000D+00  0.000000D+00  0.000000D+00  0.000000D+00  0.000000D+00
     19 -0.448475D-03  0.000000D+00 -0.469721D-04  0.000000D+00  0.508659D-03
     20  0.526908D-03  0.000000D+00  0.551870D-04  0.000000D+00 -0.597618D-03
     21 -0.115136D+01  0.000000D+00  0.889972D+00  0.000000D+00  0.169846D+01
     22  0.343749D-01  0.000000D+00  0.387820D-01  0.000000D+00  0.332398D-02
     23  0.439027D-01  0.000000D+00  0.471223D-01  0.000000D+00  0.134788D-02
     24  0.000000D+00  0.000000D+00  0.000000D+00  0.000000D+00  0.000000D+00
     25  0.000000D+00  0.000000D+00  0.000000D+00  0.000000D+00  0.000000D+00
     26 -0.969133D-02  0.000000D+00  0.378553D-02  0.000000D+00  0.167654D-01
     27  0.000000D+00  0.000000D+00 -0.308334D-02  0.000000D+00 -0.370824D-02
     28  0.105273D+00  0.000000D+00 -0.316442D+00  0.000000D+00 -0.294239D+00
     29  0.000000D+00  0.000000D+00  0.000000D+00  0.000000D+00  0.000000D+00
     30  0.403261D+00  0.000000D+00 -0.746662D+00  0.000000D+00 -0.871482D+00
     31 -0.299748D-03  0.000000D+00 -0.313948D-04  0.000000D+00  0.339974D-03
     32  0.403402D+00  0.000000D+00 -0.746647D+00  0.000000D+00 -0.871642D+00
     33 -0.932384D-01  0.000000D+00 -0.405643D-01  0.000000D+00  0.687101D-01
     34 -0.571685D-01  0.000000D+00 -0.185159D-01  0.000000D+00  0.497731D-01
     35  0.104613D-01  0.000000D+00  0.155600D-01  0.000000D+00  0.553067D-02
     36  0.000000D+00  0.000000D+00  0.000000D+00  0.000000D+00  0.000000D+00
                6             7             8             9            10 
      6  0.342751D+00
      7  0.000000D+00  0.352085D+00
      8  0.000000D+00  0.000000D+00  0.342299D+00
      9  0.000000D+00  0.000000D+00  0.000000D+00  0.174800D+00
     10  0.000000D+00  0.000000D+00  0.000000D+00  0.000000D+00  0.341509D+00
     11  0.000000D+00  0.000000D+00  0.000000D+00  0.000000D+00  0.000000D+00
     12  0.000000D+00  0.000000D+00  0.000000D+00  0.000000D+00  0.000000D+00
     13  0.000000D+00  0.000000D+00  0.000000D+00  0.000000D+00  0.000000D+00
     14  0.000000D+00  0.000000D+00  0.000000D+00  0.454852D-01  0.000000D+00
     15  0.000000D+00  0.000000D+00  0.000000D+00 -0.271988D+00  0.000000D+00
     16  0.000000D+00  0.000000D+00  0.000000D+00  0.000000D+00  0.000000D+00
     17  0.000000D+00  0.000000D+00  0.000000D+00 -0.537318D-01  0.000000D+00
     18  0.000000D+00  0.000000D+00  0.000000D+00  0.000000D+00  0.000000D+00
     19  0.000000D+00  0.000000D+00  0.000000D+00  0.000000D+00  0.000000D+00
     20  0.000000D+00  0.000000D+00  0.000000D+00  0.000000D+00  0.000000D+00
     21  0.000000D+00  0.000000D+00  0.000000D+00  0.269591D+00  0.000000D+00
     22  0.000000D+00  0.000000D+00  0.000000D+00 -0.479136D-01  0.000000D+00
     23  0.000000D+00  0.000000D+00  0.000000D+00 -0.579130D-01  0.000000D+00
     24  0.000000D+00  0.000000D+00  0.000000D+00  0.000000D+00  0.000000D+00
     25  0.000000D+00  0.000000D+00  0.000000D+00  0.000000D+00  0.000000D+00
     26  0.000000D+00  0.000000D+00  0.000000D+00 -0.653786D-02  0.000000D+00
     27  0.000000D+00  0.000000D+00  0.000000D+00  0.419918D-02  0.000000D+00
     28  0.000000D+00  0.000000D+00  0.000000D+00  0.789805D-02  0.000000D+00
     29  0.000000D+00  0.000000D+00  0.000000D+00  0.000000D+00  0.000000D+00
     30  0.000000D+00  0.000000D+00  0.000000D+00  0.482892D-02  0.000000D+00
     31  0.000000D+00  0.000000D+00  0.000000D+00  0.000000D+00  0.000000D+00
     32  0.000000D+00  0.000000D+00  0.000000D+00  0.482892D-02  0.000000D+00
     33  0.000000D+00  0.000000D+00  0.000000D+00  0.419445D-01  0.000000D+00
     34  0.000000D+00  0.000000D+00  0.000000D+00  0.170620D-01  0.000000D+00
     35  0.000000D+00  0.000000D+00  0.000000D+00 -0.196989D-01  0.000000D+00
     36  0.000000D+00  0.000000D+00  0.000000D+00  0.000000D+00  0.000000D+00
               11            12            13            14            15 
     11  0.516747D+00
     12  0.000000D+00  0.411622D+00
     13  0.000000D+00  0.000000D+00  0.539739D+00
     14  0.000000D+00  0.000000D+00  0.000000D+00  0.317251D+00
     15  0.000000D+00  0.000000D+00  0.000000D+00 -0.184685D+00  0.381060D+01
     16  0.000000D+00  0.000000D+00  0.000000D+00  0.000000D+00  0.159490D+00
     17  0.000000D+00  0.000000D+00  0.000000D+00 -0.566044D-01  0.467857D+01
     18  0.000000D+00  0.000000D+00  0.000000D+00  0.000000D+00  0.174310D-05
     19  0.000000D+00  0.000000D+00  0.000000D+00  0.000000D+00  0.697792D-02
     20  0.000000D+00  0.000000D+00  0.000000D+00  0.000000D+00  0.428587D-02
     21  0.000000D+00  0.000000D+00  0.000000D+00  0.957078D-01  0.366502D+01
     22  0.000000D+00  0.000000D+00  0.000000D+00 -0.728261D-02  0.551898D-01
     23  0.000000D+00  0.000000D+00  0.000000D+00  0.883126D-02  0.106862D+00
     24  0.000000D+00  0.000000D+00  0.000000D+00  0.000000D+00  0.000000D+00
     25  0.000000D+00  0.000000D+00  0.000000D+00  0.000000D+00  0.000000D+00
     26  0.000000D+00  0.000000D+00  0.000000D+00  0.706273D-02 -0.727589D-02
     27  0.000000D+00  0.000000D+00  0.000000D+00  0.000000D+00 -0.193640D-01
     28  0.000000D+00  0.000000D+00  0.000000D+00  0.133607D+00 -0.120553D+01
     29  0.000000D+00  0.000000D+00  0.000000D+00  0.000000D+00 -0.933562D-03
     30  0.000000D+00  0.000000D+00  0.000000D+00  0.158512D+00 -0.281627D+01
     31  0.000000D+00  0.000000D+00  0.000000D+00  0.000000D+00 -0.253955D-03
     32  0.000000D+00  0.000000D+00  0.000000D+00  0.158512D+00 -0.281461D+01
     33  0.000000D+00  0.000000D+00  0.000000D+00  0.934700D-04 -0.180349D-01
     34  0.000000D+00  0.000000D+00  0.000000D+00  0.255788D-02  0.148580D-01
     35  0.000000D+00  0.000000D+00  0.000000D+00  0.000000D+00  0.338938D-01
     36  0.000000D+00  0.000000D+00  0.000000D+00  0.000000D+00  0.000000D+00
               16            17            18            19            20 
     16  0.319573D+00
     17  0.000000D+00  0.827418D+01
     18  0.000000D+00  0.159742D+00  0.319855D+00
     19  0.000000D+00  0.787808D-02  0.000000D+00  0.347427D+00
     20  0.000000D+00  0.263954D-02  0.000000D+00  0.152272D+00  0.373150D+00
     21  0.000000D+00  0.732036D+01  0.000000D+00 -0.336793D-01  0.706282D-01
     22  0.000000D+00  0.313095D-02  0.000000D+00  0.000000D+00  0.000000D+00
     23  0.000000D+00  0.518902D-01  0.000000D+00  0.000000D+00  0.000000D+00
     24  0.000000D+00  0.000000D+00  0.000000D+00  0.000000D+00  0.000000D+00
     25  0.000000D+00  0.000000D+00  0.000000D+00  0.000000D+00  0.000000D+00
     26 -0.163117D-03  0.225190D-01  0.141082D-04  0.213636D-02 -0.396558D-02
     27 -0.440111D-02 -0.180189D-01  0.000000D+00  0.000000D+00  0.000000D+00
     28 -0.352679D-02 -0.154106D+01  0.213725D-04 -0.197206D-02 -0.650081D-02
     29 -0.176339D-02  0.411653D-02  0.197938D-02  0.000000D+00  0.000000D+00
     30  0.000000D+00 -0.416030D+01  0.397457D-02 -0.311992D-02 -0.433409D-02
     31  0.000000D+00  0.123763D-02  0.132486D-02 -0.318123D-01  0.208522D-01
     32  0.000000D+00 -0.416007D+01  0.132486D-02 -0.476319D-01 -0.584516D-01
     33  0.000000D+00  0.268746D+00  0.000000D+00 -0.479889D-02  0.563816D-02
     34  0.000000D+00  0.209473D+00  0.000000D+00 -0.239945D-02  0.281908D-02
     35  0.000000D+00  0.297401D-01  0.000000D+00  0.000000D+00  0.000000D+00
     36  0.000000D+00  0.000000D+00  0.000000D+00  0.000000D+00  0.000000D+00
               21            22            23            24            25 
     21  0.810469D+01
     22 -0.124237D+00  0.303762D+00
     23 -0.965250D-01  0.437104D-01  0.476572D+00
     24  0.000000D+00  0.000000D+00  0.000000D+00  0.250000D+00
     25  0.000000D+00  0.000000D+00  0.000000D+00  0.000000D+00  0.160000D+00
     26  0.386530D-01  0.232215D-01 -0.313010D-01  0.000000D+00  0.000000D+00
     27 -0.154197D-01  0.000000D+00  0.000000D+00  0.000000D+00  0.000000D+00
     28 -0.126444D+01  0.997073D-02  0.793813D-01  0.000000D+00  0.000000D+00
     29  0.000000D+00  0.000000D+00  0.000000D+00  0.000000D+00  0.000000D+00
     30 -0.374653D+01  0.285645D-01  0.129615D+00  0.000000D+00  0.000000D+00
     31  0.774896D-01  0.000000D+00  0.000000D+00  0.000000D+00  0.000000D+00
     32 -0.374233D+01  0.285645D-01  0.129615D+00  0.000000D+00  0.000000D+00
     33  0.389007D+00  0.104998D-01 -0.163278D-02  0.000000D+00  0.000000D+00
     34  0.261011D+00  0.411892D-01 -0.828471D-01  0.000000D+00  0.000000D+00
     35 -0.208009D-01  0.226288D-01  0.403490D-01  0.000000D+00  0.000000D+00
     36  0.000000D+00  0.000000D+00  0.000000D+00  0.000000D+00  0.000000D+00
               26            27            28            29            30 
     26  0.147542D+00
     27  0.139180D-01  0.107811D+00
     28  0.945838D-01 -0.734665D-01  0.138997D+01
     29 -0.473199D-03 -0.208265D-01  0.412170D-01  0.141293D+00
     30  0.356987D-01 -0.231589D-01  0.211161D+01 -0.676255D-01  0.418557D+01
     31  0.194409D-02  0.000000D+00  0.224512D-02 -0.225418D-01  0.471214D-01
     32  0.324384D-01 -0.231589D-01  0.210800D+01 -0.225418D-01  0.409295D+01
     33 -0.159858D-02  0.000000D+00  0.245708D+00  0.000000D+00  0.392451D+00
     34 -0.108011D-01  0.000000D+00  0.197084D+00  0.000000D+00  0.315498D+00
     35  0.000000D+00  0.000000D+00  0.353510D-01  0.000000D+00  0.578406D-01
     36  0.000000D+00  0.000000D+00  0.000000D+00  0.000000D+00  0.000000D+00
               31            32            33            34            35 
     31  0.184157D+00
     32 -0.999564D-01  0.428512D+01
     33 -0.320744D-02  0.393960D+00  0.345175D+00
     34 -0.160372D-02  0.316253D+00  0.246331D+00  0.335903D+00
     35  0.000000D+00  0.578406D-01  0.229343D-01  0.209330D-01  0.640873D-01
     36  0.000000D+00  0.000000D+00  0.000000D+00  0.000000D+00  0.000000D+00
               36 
     36  0.913836D-02
 Leave Link  716 at Tue May 20 11:14:35 2025, MaxMem=  3758096384 cpu:               0.1 elap:               0.0
 (Enter /gpfs/fs1/soft/bebop/software/custom-built/gaussian/16-c.02/g16/l103.exe)

 GradGradGradGradGradGradGradGradGradGradGradGradGradGradGradGradGradGrad
 Berny optimization.
 Search for a local minimum.
 Step number   1 out of a maximum of   46
 All quantities printed in internal units (Hartrees-Bohrs-Radians)
 Second derivative matrix not updated -- first step.
 ITU=  0
     Eigenvalues ---    0.00914   0.03516   0.05337   0.05611   0.07870
     Eigenvalues ---    0.08933   0.13549   0.16000   0.18665   0.19643
     Eigenvalues ---    0.21878   0.25000   0.25634   0.28377   0.30031
     Eigenvalues ---    0.30290   0.34151   0.34230   0.34275   0.34411
     Eigenvalues ---    0.34766   0.35209   0.37943   0.41162   0.42671
     Eigenvalues ---    0.46314   0.48824   0.51515   0.51675   0.52815
[...]
 Alpha virt. eigenvalues --    2.17910   2.24865   2.27007   2.27174   2.30383
 Alpha virt. eigenvalues --    2.39467   2.42890   2.46985   2.48306   2.51937
 Alpha virt. eigenvalues --    2.52646   2.55575   2.60668   2.64819   2.71772
 Alpha virt. eigenvalues --    2.78474   2.84462   2.86222   2.87320   2.92795
 Alpha virt. eigenvalues --    3.02018   3.03271   3.06551   3.14772   3.17893
 Alpha virt. eigenvalues --    3.23579   3.36452   3.43944   3.57157   3.65345
 Alpha virt. eigenvalues --    3.96595
  Beta  occ. eigenvalues --  -19.33627 -19.31903 -10.35691 -10.30472 -10.29629
  Beta  occ. eigenvalues --  -10.29086 -10.28452  -1.24202  -1.02765  -0.91269
  Beta  occ. eigenvalues --   -0.81916  -0.75090  -0.66792  -0.64967  -0.61541
  Beta  occ. eigenvalues --   -0.58941  -0.56985  -0.53811  -0.49984  -0.47838
  Beta  occ. eigenvalues --   -0.45896  -0.44716  -0.43626  -0.38162  -0.36321
  Beta  occ. eigenvalues --   -0.30987
  Beta virt. eigenvalues --    0.01576   0.04608   0.12460   0.14584   0.16639
  Beta virt. eigenvalues --    0.17268   0.18468   0.20815   0.22582   0.22938
  Beta virt. eigenvalues --    0.25070   0.29727   0.36014   0.39126   0.44724
  Beta virt. eigenvalues --    0.46253   0.48502   0.52415   0.52979   0.55654
  Beta virt. eigenvalues --    0.57667   0.59400   0.61457   0.63380   0.65656
  Beta virt. eigenvalues --    0.67085   0.68347   0.72298   0.72771   0.74024
  Beta virt. eigenvalues --    0.74468   0.75769   0.77140   0.79728   0.80608
  Beta virt. eigenvalues --    0.84379   0.85416   0.86878   0.91118   0.91452
  Beta virt. eigenvalues --    0.98418   1.01930   1.04186   1.08458   1.12072
  Beta virt. eigenvalues --    1.18901   1.19483   1.22543   1.30734   1.35236
  Beta virt. eigenvalues --    1.36537   1.41727   1.45519   1.48419   1.51511
  Beta virt. eigenvalues --    1.59958   1.67369   1.69965   1.71649   1.71768
  Beta virt. eigenvalues --    1.74223   1.77153   1.78873   1.83219   1.84142
  Beta virt. eigenvalues --    1.86853   1.88670   1.91641   1.94530   1.96954
  Beta virt. eigenvalues --    2.01110   2.04338   2.05964   2.11129   2.12561
  Beta virt. eigenvalues --    2.17494   2.18497   2.26076   2.27354   2.27854
  Beta virt. eigenvalues --    2.31758   2.40303   2.43878   2.47837   2.48670
  Beta virt. eigenvalues --    2.52399   2.52910   2.56455   2.61765   2.65518
  Beta virt. eigenvalues --    2.72137   2.78956   2.84805   2.86652   2.87920
  Beta virt. eigenvalues --    2.93665   3.02051   3.03825   3.07012   3.15183
  Beta virt. eigenvalues --    3.18109   3.24031   3.36715   3.44206   3.57520
  Beta virt. eigenvalues --    3.65406   3.96700
          Condensed to atoms (all electrons):
               1          2          3          4          5          6
     1  C    5.021593   0.350192   0.405518  -0.052859  -0.047962  -0.079359
     2  C    0.350192   4.985758  -0.046701   0.481374   0.426229  -0.057831
     3  H    0.405518  -0.046701   0.630031   0.006172  -0.002612  -0.000208
     4  C   -0.052859   0.481374   0.006172   4.817249  -0.049140   0.500547
     5  H   -0.047962   0.426229  -0.002612  -0.049140   0.633367   0.009711
     6  C   -0.079359  -0.057831  -0.000208   0.500547   0.009711   5.069493
     7  H    0.009011  -0.045984  -0.000305   0.420058  -0.007431  -0.048058
     8  H   -0.009572  -0.023134   0.000519  -0.000344  -0.000306   0.372374
     9  H    0.003589   0.009579  -0.000025  -0.022892  -0.000173   0.377815
    10  C    0.522116  -0.051309  -0.025669  -0.035920   0.008572  -0.033087
    11  H   -0.039437   0.007883  -0.011190   0.003385  -0.000252  -0.005997
    12  O   -0.045842  -0.002477   0.002778  -0.005864   0.000006  -0.037364
    13  O    0.002995  -0.000592  -0.000056   0.000479   0.000011   0.004180
    14  H   -0.000319   0.000051  -0.000000   0.000027  -0.000002  -0.000681
               7          8          9         10         11         12
     1  C    0.009011  -0.009572   0.003589   0.522116  -0.039437  -0.045842
     2  C   -0.045984  -0.023134   0.009579  -0.051309   0.007883  -0.002477
     3  H   -0.000305   0.000519  -0.000025  -0.025669  -0.011190   0.002778
     4  C    0.420058  -0.000344  -0.022892  -0.035920   0.003385  -0.005864
     5  H   -0.007431  -0.000306  -0.000173   0.008572  -0.000252   0.000006
     6  C   -0.048058   0.372374   0.377815  -0.033087  -0.005997  -0.037364
     7  H    0.639567   0.004702  -0.010194   0.002784  -0.000005  -0.000418
     8  H    0.004702   0.599849  -0.035514   0.015082   0.005613  -0.009579
     9  H   -0.010194  -0.035514   0.640626   0.000463  -0.000209   0.000062
    10  C    0.002784   0.015082   0.000463   4.881719   0.393836   0.280818
    11  H   -0.000005   0.005613  -0.000209   0.393836   0.628581  -0.037131
    12  O   -0.000418  -0.009579   0.000062   0.280818  -0.037131   7.978843
    13  O    0.000009   0.000147  -0.000007  -0.052502   0.009116   0.099768
    14  H   -0.000002   0.000132  -0.000015   0.002379   0.001992  -0.017661
              13         14
     1  C    0.002995  -0.000319
     2  C   -0.000592   0.000051
     3  H   -0.000056  -0.000000
     4  C    0.000479   0.000027
     5  H    0.000011  -0.000002
     6  C    0.004180  -0.000681
     7  H    0.000009  -0.000002
     8  H    0.000147   0.000132
     9  H   -0.000007  -0.000015
    10  C   -0.052502   0.002379
    11  H    0.009116   0.001992
    12  O    0.099768  -0.017661
    13  O    7.770684   0.312227
    14  H    0.312227   0.502435
          Atomic-Atomic Spin Densities.
               1          2          3          4          5          6
     1  C   -0.098503  -0.058264   0.005142   0.012461   0.000255  -0.025112
     2  C   -0.058264   0.636689  -0.007574  -0.001680   0.006196  -0.023076
     3  H    0.005142  -0.007574   0.018532   0.000681  -0.000086  -0.002111
     4  C    0.012461  -0.001680   0.000681  -0.277912   0.000088  -0.024172
     5  H    0.000255   0.006196  -0.000086   0.000088  -0.031204  -0.000320
     6  C   -0.025112  -0.023076  -0.002111  -0.024172  -0.000320   0.896584
     7  H   -0.000371  -0.004135  -0.000049   0.003405   0.000090  -0.002332
     8  H    0.005600  -0.000694   0.000338   0.001566   0.000002  -0.008714
     9  H    0.000139  -0.000426   0.000025  -0.000323   0.000013  -0.001948
    10  C    0.044296  -0.016159  -0.003661   0.002744  -0.000491  -0.078042
    11  H   -0.001388   0.000060   0.000342  -0.000160   0.000013   0.000197
    12  O    0.001099   0.003840   0.000380   0.004389  -0.000006  -0.038987
    13  O    0.000072  -0.000125  -0.000007  -0.000164  -0.000001   0.002154
    14  H   -0.000026  -0.000025  -0.000004   0.000003   0.000000   0.000549
               7          8          9         10         11         12
     1  C   -0.000371   0.005600   0.000139   0.044296  -0.001388   0.001099
     2  C   -0.004135  -0.000694  -0.000426  -0.016159   0.000060   0.003840
     3  H   -0.000049   0.000338   0.000025  -0.003661   0.000342   0.000380
     4  C    0.003405   0.001566  -0.000323   0.002744  -0.000160   0.004389
     5  H    0.000090   0.000002   0.000013  -0.000491   0.000013  -0.000006
     6  C   -0.002332  -0.008714  -0.001948  -0.078042   0.000197  -0.038987
     7  H    0.022834  -0.000516  -0.000610  -0.000557   0.000000  -0.000175
     8  H   -0.000516  -0.032491   0.003652   0.004325  -0.000050   0.002068
     9  H   -0.000610   0.003652  -0.031223   0.002455   0.000015   0.000280
    10  C   -0.000557   0.004325   0.002455   0.269523   0.002369  -0.015264
    11  H    0.000000  -0.000050   0.000015   0.002369  -0.013593   0.000266
    12  O   -0.000175   0.002068   0.000280  -0.015264   0.000266   0.046528
    13  O    0.000003  -0.000116  -0.000018  -0.001222   0.000469  -0.004305
    14  H    0.000002  -0.000024  -0.000031   0.000420  -0.000066  -0.000749
              13         14
     1  C    0.000072  -0.000026
     2  C   -0.000125  -0.000025
     3  H   -0.000007  -0.000004
     4  C   -0.000164   0.000003
     5  H   -0.000001   0.000000
     6  C    0.002154   0.000549
     7  H    0.000003   0.000002
     8  H   -0.000116  -0.000024
     9  H   -0.000018  -0.000031
    10  C   -0.001222   0.000420
    11  H    0.000469  -0.000066
    12  O   -0.004305  -0.000749
    13  O    0.018044   0.000088
    14  H    0.000088  -0.000245
 Mulliken charges and spin densities:
               1          2
     1  C   -0.039664  -0.114601
     2  C   -0.033036   0.534628
     3  H    0.041749   0.011949
     4  C   -0.062272  -0.279072
     5  H    0.029983  -0.025450
     6  C   -0.071535   0.694670
     7  H    0.036266   0.017590
     8  H    0.080032  -0.025054
     9  H    0.036898  -0.028000
    10  C    0.090718   0.210736
    11  H    0.043817  -0.011526
    12  O   -0.205938  -0.000637
    13  O   -0.146458   0.014872
    14  H    0.199439  -0.000106
 Sum of Mulliken charges =  -0.00000   1.00000
 Mulliken charges and spin densities with hydrogens summed into heavy atoms:
               1          2
     1  C    0.002085  -0.102651
     2  C   -0.003053   0.509178
     4  C   -0.026005  -0.261483
     6  C    0.045395   0.641617
    10  C    0.134535   0.199210
    12  O   -0.205938  -0.000637
    13  O    0.052981   0.014766
 Electronic spatial extent (au):  <R**2>=            735.5343
 Charge=             -0.0000 electrons
 Dipole moment (field-independent basis, Debye):
    X=             -0.6330    Y=              0.9172    Z=              1.0473  Tot=              1.5293
 Quadrupole moment (field-independent basis, Debye-Ang):
   XX=            -37.3737   YY=            -38.8654   ZZ=            -41.6192
   XY=             -4.7310   XZ=             -3.0946   YZ=             -1.6713
 Traceless Quadrupole moment (field-independent basis, Debye-Ang):
   XX=              1.9124   YY=              0.4207   ZZ=             -2.3331
   XY=             -4.7310   XZ=             -3.0946   YZ=             -1.6713
 Octapole moment (field-independent basis, Debye-Ang**2):
  XXX=            -34.9677  YYY=              3.4777  ZZZ=             -0.5672  XYY=             -7.1184
  XXY=             12.6848  XXZ=             -6.0793  XZZ=             -5.6450  YZZ=              0.0314
  YYZ=             -0.0753  XYZ=              0.6740
 Hexadecapole moment (field-independent basis, Debye-Ang**3):
 XXXX=           -509.7950 YYYY=           -243.6366 ZZZZ=           -110.4972 XXXY=            -49.0532
 XXXZ=            -10.1416 YYYX=            -11.3419 YYYZ=             -8.5089 ZZZX=              1.2513
 ZZZY=             -3.0055 XXYY=           -122.0254 XXZZ=           -112.5841 YYZZ=            -59.4081
 XXYZ=             -6.4857 YYXZ=             -1.6978 ZZXY=             -1.8500
 N-N= 2.964899704103D+02 E-N=-1.397693573053D+03  KE= 3.417521192450D+02
                          Isotropic Fermi Contact Couplings
        Atom                 a.u.       MegaHertz       Gauss      10(-4) cm-1
     1  C(13)             -0.03954     -44.45106     -15.86124     -14.82728
     2  C(13)              0.09554     107.40438      38.32455      35.82624
     3  H(1)               0.00513      22.94360       8.18685       7.65316
     4  C(13)             -0.07654     -86.04244     -30.70208     -28.70067
     5  H(1)              -0.00791     -35.33788     -12.60943     -11.78745
     6  C(13)              0.18502     207.99419      74.21750      69.37939
     7  H(1)               0.00685      30.61437      10.92397      10.21185
     8  H(1)              -0.00955     -42.70909     -15.23967     -14.24622
     9  H(1)              -0.00753     -33.63977     -12.00351     -11.22102
    10  C(13)              0.04323      48.59400      17.33955      16.20921
    11  H(1)              -0.00359     -16.06196      -5.73131      -5.35769
    12  O(17)              0.15001     -90.93712     -32.44863     -30.33336
    13  O(17)             -0.00181       1.09967       0.39239       0.36681
    14  H(1)              -0.00018      -0.78629      -0.28057      -0.26228
 --------------------------------------------------------
       Center         ----  Spin Dipole Couplings  ----
                      3XX-RR        3YY-RR        3ZZ-RR
 --------------------------------------------------------
     1   Atom        0.017472      0.009553     -0.027025
     2   Atom       -0.003023     -0.260333      0.263356
     3   Atom        0.000450      0.005472     -0.005923
     4   Atom       -0.068132      0.107007     -0.038875
     5   Atom        0.014438     -0.019601      0.005163
     6   Atom        0.463366     -0.240984     -0.222382
     7   Atom       -0.002228      0.004214     -0.001986
     8   Atom       -0.020948     -0.023375      0.044323
     9   Atom       -0.009011      0.051110     -0.042099
    10   Atom       -0.077626      0.049851      0.027775
    11   Atom        0.000457     -0.006573      0.006116
    12   Atom       -0.028002     -0.004124      0.032126
    13   Atom        0.047670     -0.016582     -0.031088
    14   Atom        0.005044     -0.000132     -0.004912
 --------------------------------------------------------
                        XY            XZ            YZ
 --------------------------------------------------------
     1   Atom       -0.025659     -0.043360     -0.034060
     2   Atom       -0.061473      0.368764     -0.072891
     3   Atom       -0.001851     -0.004128     -0.000639
     4   Atom       -0.009034     -0.165564      0.015164
     5   Atom       -0.028243     -0.010674      0.014981
     6   Atom        0.308177      0.345124      0.121000
     7   Atom       -0.005578     -0.006326      0.007040
     8   Atom        0.012509      0.008006     -0.032033
     9   Atom       -0.008440      0.016547      0.000792
    10   Atom        0.103834      0.088078      0.170331
    11   Atom        0.014006     -0.013479     -0.002535
    12   Atom       -0.021881     -0.004776      0.049696
    13   Atom        0.042448      0.017333      0.005283
    14   Atom       -0.002776      0.001691      0.000200
 --------------------------------------------------------


 ---------------------------------------------------------------------------------
              Anisotropic Spin Dipole Couplings in Principal Axis System
 ---------------------------------------------------------------------------------

       Atom             a.u.   MegaHertz   Gauss  10(-4) cm-1        Axes

              Baa    -0.0749   -10.048    -3.586    -3.352  0.4789  0.4497  0.7539
     1 C(13)  Bbb     0.0299     4.015     1.433     1.339 -0.0115  0.8620 -0.5068
              Bcc     0.0450     6.033     2.153     2.012  0.8778 -0.2340 -0.4180
 
              Baa    -0.2765   -37.103   -13.239   -12.376  0.4662  0.8613 -0.2022
     2 C(13)  Bbb    -0.2571   -34.502   -12.311   -11.509  0.6753 -0.4941 -0.5476
              Bcc     0.5336    71.605    25.551    23.885  0.5715 -0.1188  0.8119
 
              Baa    -0.0081    -4.319    -1.541    -1.441  0.4507  0.1032  0.8867
     3 H(1)   Bbb     0.0020     1.048     0.374     0.350  0.8185  0.3487 -0.4566
              Bcc     0.0061     3.271     1.167     1.091 -0.3563  0.9315  0.0727
 
              Baa    -0.2198   -29.489   -10.522    -9.836  0.7371 -0.0110  0.6757
     4 C(13)  Bbb     0.0924    12.394     4.423     4.134  0.4437  0.7620 -0.4717
              Bcc     0.1274    17.094     6.100     5.702 -0.5097  0.6474  0.5666
 
              Baa    -0.0371   -19.819    -7.072    -6.611  0.4385  0.8763 -0.1997
     5 H(1)   Bbb    -0.0017    -0.905    -0.323    -0.302  0.4916 -0.0478  0.8695
              Bcc     0.0388    20.724     7.395     6.913  0.7524 -0.4794 -0.4517
 
              Baa    -0.3689   -49.498   -17.662   -16.511 -0.4723  0.3905  0.7902
     6 C(13)  Bbb    -0.3520   -47.240   -16.856   -15.757 -0.1160  0.8612 -0.4949
              Bcc     0.7209    96.738    34.518    32.268  0.8738  0.3254  0.3614
 
              Baa    -0.0086    -4.573    -1.632    -1.526  0.6332 -0.1426  0.7607
     7 H(1)   Bbb    -0.0046    -2.453    -0.875    -0.818  0.6132  0.6922 -0.3806
              Bcc     0.0132     7.027     2.507     2.344 -0.4723  0.7075  0.5258
 
              Baa    -0.0450   -24.010    -8.567    -8.009 -0.5196  0.7884  0.3293
     8 H(1)   Bbb    -0.0122    -6.500    -2.319    -2.168  0.8536  0.4957  0.1601
              Bcc     0.0572    30.509    10.887    10.177  0.0370 -0.3643  0.9306
 
              Baa    -0.0491   -26.204    -9.350    -8.741 -0.3883 -0.0400  0.9207
     9 H(1)   Bbb    -0.0032    -1.699    -0.606    -0.567  0.9107  0.1359  0.3900
              Bcc     0.0523    27.903     9.957     9.307 -0.1407  0.9899 -0.0164
 
              Baa    -0.1381   -18.534    -6.613    -6.182 -0.6564  0.6725 -0.3420
    10 C(13)  Bbb    -0.1256   -16.852    -6.013    -5.621 -0.6573 -0.2873  0.6967
              Bcc     0.2637    35.386    12.627    11.804  0.3702  0.6821  0.6306
 
              Baa    -0.0194   -10.356    -3.695    -3.455 -0.6748  0.6792 -0.2889
    11 H(1)   Bbb    -0.0022    -1.183    -0.422    -0.394  0.3229  0.6236  0.7120
              Bcc     0.0216    11.539     4.117     3.849  0.6637  0.3872 -0.6400
 
              Baa    -0.0504     3.646     1.301     1.216  0.6012  0.6995 -0.3865
    12 O(17)  Bbb    -0.0193     1.400     0.499     0.467  0.7809 -0.4116  0.4699
              Bcc     0.0697    -5.046    -1.800    -1.683 -0.1696  0.5843  0.7936
 
              Baa    -0.0394     2.848     1.016     0.950 -0.4592  0.7425  0.4877
    13 O(17)  Bbb    -0.0325     2.353     0.840     0.785  0.0848 -0.5098  0.8561
              Bcc     0.0719    -5.201    -1.856    -1.735  0.8843  0.4345  0.1711
 
              Baa    -0.0053    -2.821    -1.006    -0.941 -0.1975 -0.1440  0.9697
    14 H(1)   Bbb    -0.0012    -0.618    -0.220    -0.206  0.3520  0.9128  0.2073
              Bcc     0.0064     3.438     1.227     1.147  0.9149 -0.3823  0.1295
 

 ---------------------------------------------------------------------------------

 No NMR shielding tensors so no spin-rotation constants.
 Leave Link  601 at Tue May 20 11:16:27 2025, MaxMem=  3758096384 cpu:               0.8 elap:               0.2
 (Enter /gpfs/fs1/soft/bebop/software/custom-built/gaussian/16-c.02/g16/l9999.exe)
 Unable to Open any file for archive entry.
 1\1\GINC-CSED-0031\POpt\UwB97XD\def2SVP\C5H7O2(2)\COPAN\20-May-2025\1\
 \#P wb97xd/def2svp # SCF=(xqc) # POpt=() # int=ultrafine\\comment:\\0,
 2\C\C,1,R1\H,1,R2,2,A2\C,2,R3,1,A3,3,D3,0\H,2,R4,1,A4,4,D4,0\C,4,R5,2,
 A5,1,D5,0\H,4,R6,2,A6,6,D6,0\H,6,R7,4,A7,2,D7,0\H,6,R8,4,A8,8,D8,0\C,6
 ,R9,4,A9,8,D9,0\H,10,R10,6,A10,4,D10,0\O,10,R11,6,A11,11,D11,0\O,12,R1
 2,10,A12,1,D12,0\H,13,R13,12,A13,10,D13,0\\R1=1.42918383\R2=1.09347439
 \R3=1.39256668\R4=1.09016857\R5=1.39359985\R6=1.09494256\R7=1.08740291
 \R8=1.09524254\R10=1.09651838\R11=1.36988594\R12=1.43131949\R13=0.9670
 2402\A2=123.40753388\A3=110.84879098\A4=124.83056698\A5=119.1007115\A6
 =121.31392784\A7=124.14202875\A8=118.2106329\A9=89.27657862\A10=127.79
 518472\A11=73.73661167\A12=106.24165795\A13=99.56541139\D3=222.0029557
 8\D4=176.82708393\D5=9.17357211\D6=183.28237501\D7=34.1280649\D8=158.4
 5021177\D9=301.83536112\D10=158.36795476\D11=103.24276462\D12=132.5086
 713\D13=138.20943811\R9=2.25\\Version=ES64L-G16RevC.01\State=2-A\HF=-3
 44.5737346\S2=0.79274\S2-1=0.\S2A=0.750823\RMSD=7.107e-09\RMSF=1.438e-
 02\Dipole=-0.2962366,-0.4710447,-0.2288874\Quadrupole=3.4654936,-3.798
 0118,0.3325182,1.8546237,1.2392793,1.8776786\PG=C01 [X(C5H7O2)]\\@
 The archive entry for this job was punched.



 IN THIS SHORT LIFE

 THAT ONLY LASTS AN HOUR

 HOW MUCH, HOW LITTLE, IS WITHIN OUR POWER....


 EMILY DICKINSON BOLTS OF MELODY NO. 521
 Job cpu time:       0 days  0 hours 11 minutes 13.5 seconds.
 Elapsed time:       0 days  0 hours  2 minutes  7.7 seconds.
 File lengths (MBytes):  RWF=     15 Int=      0 D2E=      0 Chk=      3 Scr=      1
 Normal termination of Gaussian 16 at Tue May 20 11:16:27 2025.
