 Entering Gaussian System, Link 0=g16
 Input=run.inp_2.24
 Output=run.out_2.24
 Initial command:
 /gpfs/fs1/soft/bebop/software/custom-built/gaussian/16-c.02/g16/l1.exe "/scratch/Gau-2169746.inp" -scrdir="/scratch/"
 Default CPUs for threads: 0-35
 Default is to use a total of  36 processors:
                               36 via shared-memory
                                1 via Linda
 Entering Link 1 = /gpfs/fs1/soft/bebop/software/custom-built/gaussian/16-c.02/g16/l1.exe PID=   2169747.
  
 Copyright (c) 1988-2019, Gaussian, Inc.  All Rights Reserved.
  
 This is part of the Gaussian(R) 16 program.  It is based on
 the Gaussian(R) 09 system (copyright 2009, Gaussian, Inc.),
 the Gaussian(R) 03 system (copyright 2003, Gaussian, Inc.),
 the Gaussian(R) 98 system (copyright 1998, Gaussian, Inc.),
 the Gaussian(R) 94 system (copyright 1995, Gaussian, Inc.),
 the Gaussian 92(TM) system (copyright 1992, Gaussian, Inc.),
 the Gaussian 90(TM) system (copyright 1990, Gaussian, Inc.),
 the Gaussian 88(TM) system (copyright 1988, Gaussian, Inc.),
 the Gaussian 86(TM) system (copyright 1986, Carnegie Mellon
 University), and the Gaussian 82(TM) system (copyright 1983,
 Carnegie Mellon University). Gaussian is a federally registered
 trademark of Gaussian, Inc.
  
 This software contains proprietary and confidential information,
 including trade secrets, belonging to Gaussian, Inc.
  
 This software is provided under written license and may be
 used, copied, transmitted, or stored only in accord with that
 written license.
  
 The following legend is applicable only to US Government
 contracts under FAR:
  
                    RESTRICTED RIGHTS LEGEND
  
 Use, reproduction and disclosure by the US Government is
 subject to restrictions as set forth in subparagraphs (a)
 and (c) of the Commercial Computer Software - Restricted
 Rights clause in FAR 52.227-19.
  
 Gaussian, Inc.
 340 Quinnipiac St., Bldg. 40, Wallingford CT 06492
  
  
 ---------------------------------------------------------------
 Warning -- This program may not be used in any manner that
 competes with the business of Gaussian, Inc. or will provide
 assistance to any competitor of Gaussian, Inc.  The licensee
 of this program is prohibited from giving any competitor of
 Gaussian, Inc. access to this program.  By using this program,
 the user acknowledges that Gaussian, Inc. is engaged in the
 business of creating and licensing software in the field of
 computational chemistry and represents and warrants to the
 licensee that it is not a competitor of Gaussian, Inc. and that
 it will not use this program in any manner prohibited above.
 ---------------------------------------------------------------
  

 Cite this work as:
 Gaussian 16, Revision C.01,
 M. J. Frisch, G. W. Trucks, H. B. Schlegel, G. E. Scuseria, 
 M. A. Robb, J. R. Cheeseman, G. Scalmani, V. Barone, 
 G. A. Petersson, H. Nakatsuji, X. Li, M. Caricato, A. V. Marenich, 
 J. Bloino, B. G. Janesko, R. Gomperts, B. Mennucci, H. P. Hratchian, 
 J. V. Ortiz, A. F. Izmaylov, J. L. Sonnenberg, D. Williams-Young, 
 F. Ding, F. Lipparini, F. Egidi, J. Goings, B. Peng, A. Petrone, 
 T. Henderson, D. Ranasinghe, V. G. Zakrzewski, J. Gao, N. Rega, 
 G. Zheng, W. Liang, M. Hada, M. Ehara, K. Toyota, R. Fukuda, 
 J. Hasegawa, M. Ishida, T. Nakajima, Y. Honda, O. Kitao, H. Nakai, 
 T. Vreven, K. Throssell, J. A. Montgomery, Jr., J. E. Peralta, 
 F. Ogliaro, M. J. Bearpark, J. J. Heyd, E. N. Brothers, K. N. Kudin, 
 V. N. Staroverov, T. A. Keith, R. Kobayashi, J. Normand, 
 K. Raghavachari, A. P. Rendell, J. C. Burant, S. S. Iyengar, 
 J. Tomasi, M. Cossi, J. M. Millam, M. Klene, C. Adamo, R. Cammi, 
 J. W. Ochterski, R. L. Martin, K. Morokuma, O. Farkas, 
 J. B. Foresman, and D. J. Fox, Gaussian, Inc., Wallingford CT, 2019.
 
 ******************************************
 Gaussian 16:  ES64L-G16RevC.01  3-Jul-2019
                20-May-2025 
 ******************************************
 %mem=28GB
 %NProcShared=6
 Will use up to    6 processors via shared memory.
 -------------------------------------------------------
 #P wb97xd/def2svp # SCF=(xqc) # POpt=() # int=ultrafine
 -------------------------------------------------------
 1/10=7,26=4,38=1/1,3;
 2/12=2,17=6,18=5,29=3,40=1/2;
 3/5=43,7=101,11=2,25=1,30=1,71=1,74=-58,75=-5/1,2,3;
 4//1;
 5/5=2,8=3,13=1,38=5/2,8;
 6/7=2,8=2,9=2,10=2,28=1/1;
 7/29=1/1,2,3,16;
 1/10=7,26=4/3(2);
 2/29=3/2;
 99//99;
 2/29=3/2;
 3/5=43,7=101,11=2,25=1,30=1,71=1,74=-58,75=-5/1,2,3;
 4/5=5,16=3,69=1/1;
 5/5=2,8=3,13=1,38=5/2,8;
 7//1,2,3,16;
 1/26=4/3(-5);
 2/29=3/2;
 6/7=2,8=2,9=2,10=2,19=2,28=1/1;
 99/9=1/99;
 Leave Link    1 at Tue May 20 11:43:31 2025, MaxMem=  3758096384 cpu:               0.3 elap:               0.0
 (Enter /gpfs/fs1/soft/bebop/software/custom-built/gaussian/16-c.02/g16/l101.exe)
 --------
 comment:
 --------
 Symbolic Z-matrix:
 Charge =  0 Multiplicity = 2
 C
 C                    1    R1
 H                    1    R2       2    A2
 C                    2    R3       1    A3       3    D3       0
 H                    2    R4       1    A4       4    D4       0
 C                    4    R5       2    A5       1    D5       0
 H                    4    R6       2    A6       6    D6       0
 H                    6    R7       4    A7       2    D7       0
 H                    6    R8       4    A8       8    D8       0
 C                    6    R9       4    A9       8    D9       0
 H                    10   R10      6    A10      4    D10      0
 O                    10   R11      6    A11      11   D11      0
 O                    12   R12      10   A12      1    D12      0
 H                    13   R13      12   A13      10   D13      0
       Variables:
  R1                    1.4292                   
  R2                    1.0935                   
  R3                    1.3926                   
  R4                    1.0902                   
  R5                    1.3936                   
  R6                    1.0949                   
  R7                    1.0874                   
  R8                    1.0952                   
  R10                   1.0965                   
  R11                   1.3699                   
  R12                   1.4313                   
  R13                   0.967                    
  A2                  123.4075                   
  A3                  110.8488                   
  A4                  124.8306                   
  A5                  119.1007                   
  A6                  121.3139                   
  A7                  124.142                    
  A8                  118.2106                   
  A9                   89.2766                   
  A10                 127.7952                   
  A11                  73.7366                   
  A12                 106.2417                   
  A13                  99.5654                   
  D3                  222.003                    
  D4                  176.8271                   
  D5                    9.1736                   
  D6                  183.2824                   
  D7                   34.1281                   
  D8                  158.4502                   
  D9                  301.8354                   
  D10                 158.368                    
  D11                 103.2428                   
  D12                 132.5087                   
  D13                 138.2094                   
       Constants:
  R9                    2.24                     
 
 ITRead=  0  0  0  0  0  0  0  0  0  0  0  0  0  0
 MicOpt= -1 -1 -1 -1 -1 -1 -1 -1 -1 -1 -1 -1 -1 -1
 NAtoms=     14 NQM=       14 NQMF=       0 NMMI=      0 NMMIF=      0
                NMic=       0 NMicF=      0.
                    Isotopes and Nuclear Properties:
 (Nuclear quadrupole moments (NQMom) in fm**2, nuclear magnetic moments (NMagM)
  in nuclear magnetons)

  Atom         1           2           3           4           5           6           7           8           9          10
 IAtWgt=          12          12           1          12           1          12           1           1           1          12
 AtmWgt=  12.0000000  12.0000000   1.0078250  12.0000000   1.0078250  12.0000000   1.0078250   1.0078250   1.0078250  12.0000000
 NucSpn=           0           0           1           0           1           0           1           1           1           0
 AtZEff=  -0.0000000  -0.0000000  -0.0000000  -0.0000000  -0.0000000  -0.0000000  -0.0000000  -0.0000000  -0.0000000  -0.0000000
 NQMom=    0.0000000   0.0000000   0.0000000   0.0000000   0.0000000   0.0000000   0.0000000   0.0000000   0.0000000   0.0000000
 NMagM=    0.0000000   0.0000000   2.7928460   0.0000000   2.7928460   0.0000000   2.7928460   2.7928460   2.7928460   0.0000000
 AtZNuc=   6.0000000   6.0000000   1.0000000   6.0000000   1.0000000   6.0000000   1.0000000   1.0000000   1.0000000   6.0000000

  Atom        11          12          13          14
 IAtWgt=           1          16          16           1
 AtmWgt=   1.0078250  15.9949146  15.9949146   1.0078250
 NucSpn=           1           0           0           1
 AtZEff=  -0.0000000  -0.0000000  -0.0000000  -0.0000000
 NQMom=    0.0000000   0.0000000   0.0000000   0.0000000
 NMagM=    2.7928460   0.0000000   0.0000000   2.7928460
 AtZNuc=   1.0000000   8.0000000   8.0000000   1.0000000
 Leave Link  101 at Tue May 20 11:43:31 2025, MaxMem=  3758096384 cpu:               0.6 elap:               0.1
 (Enter /gpfs/fs1/soft/bebop/software/custom-built/gaussian/16-c.02/g16/l103.exe)

 GradGradGradGradGradGradGradGradGradGradGradGradGradGradGradGradGradGrad
 Berny optimization.
 Initialization pass.
                       ----------------------------
                       !    Initial Parameters    !
                       ! (Angstroms and Degrees)  !
 ----------------------                            ----------------------
 !      Name          Value   Derivative information (Atomic Units)     !
 ------------------------------------------------------------------------
 !       R1          1.4292   estimate D2E/DX2                          !
 !       R2          1.0935   estimate D2E/DX2                          !
 !       R3          1.3926   estimate D2E/DX2                          !
 !       R4          1.0902   estimate D2E/DX2                          !
 !       R5          1.3936   estimate D2E/DX2                          !
 !       R6          1.0949   estimate D2E/DX2                          !
 !       R7          1.0874   estimate D2E/DX2                          !
 !       R8          1.0952   estimate D2E/DX2                          !
 !       R10         1.0965   estimate D2E/DX2                          !
 !       R11         1.3699   estimate D2E/DX2                          !
 !       R12         1.4313   estimate D2E/DX2                          !
 !       R13         0.967    estimate D2E/DX2                          !
 !       A2        123.4075   estimate D2E/DX2                          !
 !       A3        110.8488   estimate D2E/DX2                          !
 !       A4        124.8306   estimate D2E/DX2                          !
 !       A5        119.1007   estimate D2E/DX2                          !
 !       A6        121.3139   estimate D2E/DX2                          !
 !       A7        124.142    estimate D2E/DX2                          !
 !       A8        118.2106   estimate D2E/DX2                          !
 !       A9         89.2766   estimate D2E/DX2                          !
 !       A10       127.7952   estimate D2E/DX2                          !
 !       A11        73.7366   estimate D2E/DX2                          !
 !       A12       106.2417   estimate D2E/DX2                          !
 !       A13        99.5654   estimate D2E/DX2                          !
 !       D3        222.003    estimate D2E/DX2                          !
 !       D4        176.8271   estimate D2E/DX2                          !
 !       D5          9.1736   estimate D2E/DX2                          !
 !       D6        183.2824   estimate D2E/DX2                          !
 !       D7         34.1281   estimate D2E/DX2                          !
 !       D8        158.4502   estimate D2E/DX2                          !
 !       D9        301.8354   estimate D2E/DX2                          !
 !       D10       158.368    estimate D2E/DX2                          !
 !       D11       103.2428   estimate D2E/DX2                          !
 !       D12       132.5087   estimate D2E/DX2                          !
 !       D13       138.2094   estimate D2E/DX2                          !
 !       R9          2.24     Frozen                                    !
 ------------------------------------------------------------------------
 Trust Radius=3.00D-01 FncErr=1.00D-07 GrdErr=1.00D-06 EigMax=2.50D+02 EigMin=1.00D-04
 Number of steps in this run=     46 maximum allowed number of steps=    100.
 GradGradGradGradGradGradGradGradGradGradGradGradGradGradGradGradGradGrad

 Leave Link  103 at Tue May 20 11:43:31 2025, MaxMem=  3758096384 cpu:               0.1 elap:               0.0
 (Enter /gpfs/fs1/soft/bebop/software/custom-built/gaussian/16-c.02/g16/l202.exe)
 ---------------------------------------------------------------------------------------------------
                            Z-MATRIX (ANGSTROMS AND DEGREES)
   CD    Cent   Atom    N1       Length/X        N2       Alpha/Y        N3        Beta/Z          J
 ---------------------------------------------------------------------------------------------------
      1      1  C 
      2      2  C        1   1.429200(     1)
      3      3  H        1   1.093500(     2)      2  123.407(    14)
      4      4  C        2   1.392600(     3)      1  110.849(    15)      3  222.003(    26)      0
      5      5  H        2   1.090200(     4)      1  124.831(    16)      4  176.827(    27)      0
      6      6  C        4   1.393600(     5)      2  119.101(    17)      1    9.174(    28)      0
      7      7  H        4   1.094900(     6)      2  121.314(    18)      6  183.282(    29)      0
      8      8  H        6   1.087400(     7)      4  124.142(    19)      2   34.128(    30)      0
      9      9  H        6   1.095200(     8)      4  118.211(    20)      8  158.450(    31)      0
     10     10  C        6   2.240000(     9)      4   89.277(    21)      8  301.835(    32)      0
     11     11  H       10   1.096500(    10)      6  127.795(    22)      4  158.368(    33)      0
     12     12  O       10   1.369900(    11)      6   73.737(    23)     11  103.243(    34)      0
     13     13  O       12   1.431300(    12)     10  106.242(    24)      1  132.509(    35)      0
     14     14  H       13   0.967000(    13)     12   99.565(    25)     10  138.209(    36)      0
 ---------------------------------------------------------------------------------------------------
                         Z-Matrix orientation:                         
 ---------------------------------------------------------------------
 Center     Atomic      Atomic             Coordinates (Angstroms)
 Number     Number       Type             X           Y           Z
 ---------------------------------------------------------------------
      1          6           0        0.000000    0.000000    0.000000
      2          6           0        0.000000    0.000000    1.429200
      3          1           0        0.912827    0.000000   -0.602070
      4          6           0       -0.967095   -0.870868    1.924831
      5          1           0        0.697123    0.561104    2.051870
      6          6           0       -1.625797   -1.725269    1.042656
      7          1           0       -1.255714   -0.859264    2.980942
      8          1           0       -1.163299   -2.171723    0.165608
      9          1           0       -2.519033   -2.249180    1.399180
     10          6           0       -1.165955   -0.307315   -0.629334
     11          1           0       -1.132461   -0.523560   -1.703778
     12          8           0       -2.451702   -0.038153   -0.240705
     13          8           0       -3.111316    0.505785   -1.388600
     14          1           0       -3.960597    0.048896   -1.317440
 ---------------------------------------------------------------------
                    Distance matrix (angstroms):
                    1          2          3          4          5
     1  C    0.000000
     2  C    1.429200   0.000000
     3  H    1.093500   2.226951   0.000000
     4  C    2.323501   1.392600   3.267682   0.000000
     5  H    2.238524   1.090200   2.721170   2.199160   0.000000
     6  C    2.589768   2.401913   3.482282   1.393600   3.412034
     7  H    3.346814   2.173259   4.275381   1.094900   2.587314
     8  H    2.469225   2.768811   3.100970   2.196721   3.806245
     9  H    3.655413   3.377164   4.565247   2.141159   4.320574
    10  C    1.360131   2.385678   2.101552   2.623146   3.378471
    11  H    2.111739   3.372259   2.381403   3.648941   4.316105
    12  O    2.463785   2.966628   3.384095   2.754454   3.940826
    13  O    3.444461   4.228014   4.131365   4.179913   5.132650
    14  H    4.174250   4.820036   4.925892   4.507698   5.771392
                    6          7          8          9         10
     6  C    0.000000
     7  H    2.154966   0.000000
     8  H    1.087400   3.107603   0.000000
     9  H    1.095200   2.455567   1.834588   0.000000
    10  C    2.240000   3.653327   2.026810   3.117135   0.000000
    11  H    3.038154   4.698349   2.492388   3.811652   1.096500
    12  O    2.274971   3.533217   2.525311   2.753615   1.369900
    13  O    3.618753   4.939586   3.657783   3.963880   2.240992
    14  H    3.764174   5.159189   3.867229   3.839178   2.900069
                   11         12         13         14
    11  H    0.000000
    12  O    2.028940   0.000000
    13  O    2.252721   1.431300   0.000000
    14  H    2.911239   1.855721   0.967000   0.000000
 Stoichiometry    C5H7O2(2)
 Framework group  C1[X(C5H7O2)]
 Deg. of freedom    36
 Full point group                 C1      NOp   1
 Largest Abelian subgroup         C1      NOp   1
 Largest concise Abelian subgroup C1      NOp   1
                         Standard orientation:                         
 ---------------------------------------------------------------------
 Center     Atomic      Atomic             Coordinates (Angstroms)
 Number     Number       Type             X           Y           Z
 ---------------------------------------------------------------------
      1          6           0        0.684176   -1.296514    0.248795
      2          6           0        1.711916   -0.635511   -0.492446
      3          1           0        0.850707   -2.210554    0.825458
      4          6           0        1.631026    0.745104   -0.329069
      5          1           0        2.490043   -1.140909   -1.064833
      6          6           0        0.758144    1.264720    0.624974
      7          1           0        2.198297    1.428144   -0.969746
      8          1           0        0.532608    0.782116    1.572954
      9          1           0        0.546915    2.339128    0.602787
     10          6           0       -0.464289   -0.607064    0.484683
     11          1           0       -1.165806   -1.008617    1.225589
     12          8           0       -1.090355    0.320174   -0.305821
     13          8           0       -2.472553   -0.050016   -0.339099
     14          1           0       -2.875346    0.825018   -0.254467
 ---------------------------------------------------------------------
 Rotational constants (GHZ):           5.2642411           2.0709308           1.7175711
 Leave Link  202 at Tue May 20 11:43:31 2025, MaxMem=  3758096384 cpu:               0.1 elap:               0.0
 (Enter /gpfs/fs1/soft/bebop/software/custom-built/gaussian/16-c.02/g16/l301.exe)
 Standard basis: def2SVP (5D, 7F)
 Ernie: Thresh=  0.10000D-02 Tol=  0.10000D-05 Strict=F.
 There are   140 symmetry adapted cartesian basis functions of A   symmetry.
 There are   133 symmetry adapted basis functions of A   symmetry.
   133 basis functions,   224 primitive gaussians,   140 cartesian basis functions
    27 alpha electrons       26 beta electrons
       nuclear repulsion energy       296.7164432339 Hartrees.
 IExCor= 4639 DFT=T Ex+Corr=wB97XD ExCW=0 ScaHFX=  1.000000
 ScaDFX=  1.000000  1.000000  1.000000  1.000000 ScalE2=  1.000000  1.000000
 IRadAn=      5 IRanWt=     -1 IRanGd=            0 ICorTp=0 IEmpDi=121
 HFx  wShort=  0.000000 wLong=  0.200000 cFull=  0.222036 cShort=  0.000000 cLong=  0.777964
 DFx  wShort=  0.000000 wLong=  0.200000 cFull=  0.000000 cShort=  0.000000 cLong=  1.000000
 NAtoms=   14 NActive=   14 NUniq=   14 SFac= 1.00D+00 NAtFMM=   60 NAOKFM=F Big=F
 Integral buffers will be    131072 words long.
 Raffenetti 2 integral format.
 Two-electron integral symmetry is turned on.
 R6Disp:  Grimme-D2 Dispersion energy=       -0.0057420279 Hartrees.
 Nuclear repulsion after empirical dispersion term =      296.7107012060 Hartrees.
 Leave Link  301 at Tue May 20 11:43:32 2025, MaxMem=  3758096384 cpu:               0.3 elap:               0.1
 (Enter /gpfs/fs1/soft/bebop/software/custom-built/gaussian/16-c.02/g16/l302.exe)
 NPDir=0 NMtPBC=     1 NCelOv=     1 NCel=       1 NClECP=     1 NCelD=      1
         NCelK=      1 NCelE2=     1 NClLst=     1 CellRange=     0.0.
 One-electron integrals computed using PRISM.
 One-electron integral symmetry used in STVInt
   1 Symmetry operations used in ECPInt.
 ECPInt:  NShTT=    2016 NPrTT=    7252 LenC2=    2009 LenP2D=    5976.
 LDataN:  DoStor=T MaxTD1= 4 Len=   56
 NBasis=   133 RedAO= T EigKep=  1.04D-03  NBF=   133
 NBsUse=   133 1.00D-06 EigRej= -1.00D+00 NBFU=   133
 Precomputing XC quadrature grid using
 IXCGrd= 4 IRadAn=           5 IRanWt=          -1 IRanGd=           0 AccXCQ= 0.00D+00.
 Generated NRdTot=       0 NPtTot=           0 NUsed=           0 NTot=          32
 NSgBfM=   140   140   140   140   140 MxSgAt=    14 MxSgA2=    14.
 Leave Link  302 at Tue May 20 11:43:32 2025, MaxMem=  3758096384 cpu:               0.8 elap:               0.2
 (Enter /gpfs/fs1/soft/bebop/software/custom-built/gaussian/16-c.02/g16/l303.exe)
 DipDrv:  MaxL=1.
 Leave Link  303 at Tue May 20 11:43:32 2025, MaxMem=  3758096384 cpu:               0.1 elap:               0.0
 (Enter /gpfs/fs1/soft/bebop/software/custom-built/gaussian/16-c.02/g16/l401.exe)
 ExpMin= 1.22D-01 ExpMax= 2.27D+03 ExpMxC= 3.41D+02 IAcc=3 IRadAn=         5 AccDes= 0.00D+00
 Harris functional with IExCor= 4639 and IRadAn=       5 diagonalized for initial guess.
 HarFok:  IExCor= 4639 AccDes= 0.00D+00 IRadAn=         5 IDoV= 1 UseB2=F ITyADJ=14
 ICtDFT=  3500011 ScaDFX=  1.000000  1.000000  1.000000  1.000000
 FoFCou: FMM=F IPFlag=           0 FMFlag=      100000 FMFlg1=           0
         NFxFlg=           0 DoJE=T BraDBF=F KetDBF=T FulRan=T
         wScrn=  0.000000 ICntrl=       500 IOpCl=  0 I1Cent=   200000004 NGrid=           0
         NMat0=    1 NMatS0=      1 NMatT0=    0 NMatD0=    1 NMtDS0=    0 NMtDT0=    0
 Petite list used in FoFCou.
 Harris En= -330.315181145767    
 JPrj=0 DoOrth=F DoCkMO=F.
 Initial guess <Sx>= 0.0000 <Sy>= 0.0000 <Sz>= 0.5000 <S**2>= 0.7500 S= 0.5000
 Leave Link  401 at Tue May 20 11:43:32 2025, MaxMem=  3758096384 cpu:               2.4 elap:               0.4
 (Enter /gpfs/fs1/soft/bebop/software/custom-built/gaussian/16-c.02/g16/l502.exe)
 Keep R1 and R2 ints in memory in canonical form, NReq=165843629.
 FoFCou: FMM=F IPFlag=           0 FMFlag=           0 FMFlg1=           0
         NFxFlg=           0 DoJE=F BraDBF=F KetDBF=F FulRan=T
         wScrn=  0.000000 ICntrl=       600 IOpCl=  0 I1Cent=           0 NGrid=           0
         NMat0=    1 NMatS0=   8911 NMatT0=    0 NMatD0=    1 NMtDS0=    0 NMtDT0=    0
 Symmetry not used in FoFCou.
 Two-electron integral symmetry not used.
 UHF open shell SCF:
 Using DIIS extrapolation, IDIIS=  1040.
 NGot=  3758096384 LenX=  3599224750 LenY=  3599204709
 Requested convergence on RMS density matrix=1.00D-08 within  32 cycles.
 Requested convergence on MAX density matrix=1.00D-06.
 Requested convergence on             energy=1.00D-06.
 No special actions if energy rises.
 Integral accuracy reduced to 1.0D-05 until final iterations.

 Cycle   1  Pass 0  IDiag  1:
 E= -344.361340680047    
 DIIS: error= 2.59D-02 at cycle   1 NSaved=   1.
 NSaved= 1 IEnMin= 1 EnMin= -344.361340680047     IErMin= 1 ErrMin= 2.59D-02
 ErrMax= 2.59D-02  0.00D+00 EMaxC= 1.00D-01 BMatC= 1.26D+00 BMatP= 1.26D+00
 IDIUse=3 WtCom= 7.41D-01 WtEn= 2.59D-01
 Coeff-Com:  0.100D+01
 Coeff-En:   0.100D+01
 Coeff:      0.100D+01
 Gap=     0.188 Goal=   None    Shift=    0.000
 Gap=     0.518 Goal=   None    Shift=    0.000
 GapD=    0.188 DampG=1.000 DampE=0.500 DampFc=0.5000 IDamp=-1.
 Damping current iteration by 5.00D-01
 RMSDP=7.77D-03 MaxDP=2.02D-01              OVMax= 3.50D-01

 Cycle   2  Pass 0  IDiag  1:
 E= -344.434663314347     Delta-E=       -0.073322634300 Rises=F Damp=T
 DIIS: error= 1.32D-02 at cycle   2 NSaved=   2.
 NSaved= 2 IEnMin= 2 EnMin= -344.434663314347     IErMin= 2 ErrMin= 1.32D-02
 ErrMax= 1.32D-02  0.00D+00 EMaxC= 1.00D-01 BMatC= 1.47D-01 BMatP= 1.26D+00
 IDIUse=3 WtCom= 8.68D-01 WtEn= 1.32D-01
 Coeff-Com:  0.436D-01 0.956D+00
 Coeff-En:   0.224D+00 0.776D+00
 Coeff:      0.674D-01 0.933D+00
 Gap=     0.282 Goal=   None    Shift=    0.000
 Gap=     0.484 Goal=   None    Shift=    0.000
 RMSDP=2.17D-03 MaxDP=4.48D-02 DE=-7.33D-02 OVMax= 2.80D-01

 Cycle   3  Pass 0  IDiag  1:
 E= -344.563488714814     Delta-E=       -0.128825400467 Rises=F Damp=F
 DIIS: error= 3.45D-03 at cycle   3 NSaved=   3.
 NSaved= 3 IEnMin= 3 EnMin= -344.563488714814     IErMin= 3 ErrMin= 3.45D-03
 ErrMax= 3.45D-03  0.00D+00 EMaxC= 1.00D-01 BMatC= 2.08D-02 BMatP= 1.47D-01
 IDIUse=3 WtCom= 9.66D-01 WtEn= 3.45D-02
 Coeff-Com: -0.973D-01 0.195D+00 0.902D+00
 Coeff-En:   0.000D+00 0.000D+00 0.100D+01
 Coeff:     -0.940D-01 0.189D+00 0.905D+00
 Gap=     0.263 Goal=   None    Shift=    0.000
 Gap=     0.316 Goal=   None    Shift=    0.000
 RMSDP=7.96D-04 MaxDP=1.58D-02 DE=-1.29D-01 OVMax= 5.12D-02

 Cycle   4  Pass 0  IDiag  1:
 E= -344.570055701973     Delta-E=       -0.006566987159 Rises=F Damp=F
 DIIS: error= 1.53D-03 at cycle   4 NSaved=   4.
 NSaved= 4 IEnMin= 4 EnMin= -344.570055701973     IErMin= 4 ErrMin= 1.53D-03
 ErrMax= 1.53D-03  0.00D+00 EMaxC= 1.00D-01 BMatC= 3.71D-03 BMatP= 2.08D-02
 IDIUse=3 WtCom= 9.85D-01 WtEn= 1.53D-02
 Coeff-Com: -0.473D-01 0.733D-01 0.458D+00 0.516D+00
 Coeff-En:   0.000D+00 0.000D+00 0.000D+00 0.100D+01
 Coeff:     -0.466D-01 0.721D-01 0.451D+00 0.523D+00
 Gap=     0.268 Goal=   None    Shift=    0.000
 Gap=     0.318 Goal=   None    Shift=    0.000
 RMSDP=2.72D-04 MaxDP=5.08D-03 DE=-6.57D-03 OVMax= 1.30D-02

 Cycle   5  Pass 0  IDiag  1:
 E= -344.571278527876     Delta-E=       -0.001222825903 Rises=F Damp=F
 DIIS: error= 8.91D-04 at cycle   5 NSaved=   5.
 NSaved= 5 IEnMin= 5 EnMin= -344.571278527876     IErMin= 5 ErrMin= 8.91D-04
 ErrMax= 8.91D-04  0.00D+00 EMaxC= 1.00D-01 BMatC= 5.08D-04 BMatP= 3.71D-03
 IDIUse=3 WtCom= 9.91D-01 WtEn= 8.91D-03
 Coeff-Com:  0.192D-01-0.450D-01-0.183D+00 0.544D-01 0.115D+01
 Coeff-En:   0.000D+00 0.000D+00 0.000D+00 0.000D+00 0.100D+01
 Coeff:      0.190D-01-0.446D-01-0.182D+00 0.539D-01 0.115D+01
 Gap=     0.274 Goal=   None    Shift=    0.000
 Gap=     0.322 Goal=   None    Shift=    0.000
 RMSDP=3.63D-04 MaxDP=6.64D-03 DE=-1.22D-03 OVMax= 2.63D-02

 Cycle   6  Pass 0  IDiag  1:
 E= -344.572104172304     Delta-E=       -0.000825644429 Rises=F Damp=F
 DIIS: error= 5.16D-04 at cycle   6 NSaved=   6.
 NSaved= 6 IEnMin= 6 EnMin= -344.572104172304     IErMin= 6 ErrMin= 5.16D-04
 ErrMax= 5.16D-04  0.00D+00 EMaxC= 1.00D-01 BMatC= 1.62D-04 BMatP= 5.08D-04
 IDIUse=3 WtCom= 9.95D-01 WtEn= 5.16D-03
 Coeff-Com:  0.164D-01-0.287D-01-0.133D+00-0.129D+00 0.239D+00 0.104D+01
 Coeff-En:   0.000D+00 0.000D+00 0.000D+00 0.000D+00 0.000D+00 0.100D+01
 Coeff:      0.163D-01-0.286D-01-0.133D+00-0.128D+00 0.238D+00 0.103D+01
 Gap=     0.277 Goal=   None    Shift=    0.000
 Gap=     0.324 Goal=   None    Shift=    0.000
 RMSDP=2.18D-04 MaxDP=3.28D-03 DE=-8.26D-04 OVMax= 1.53D-02

 Cycle   7  Pass 0  IDiag  1:
 E= -344.572352169924     Delta-E=       -0.000247997620 Rises=F Damp=F
 DIIS: error= 3.11D-04 at cycle   7 NSaved=   7.
 NSaved= 7 IEnMin= 7 EnMin= -344.572352169924     IErMin= 7 ErrMin= 3.11D-04
 ErrMax= 3.11D-04  0.00D+00 EMaxC= 1.00D-01 BMatC= 6.32D-05 BMatP= 1.62D-04
 IDIUse=3 WtCom= 9.97D-01 WtEn= 3.11D-03
 Coeff-Com: -0.747D-03 0.426D-02 0.219D-01-0.455D-01-0.226D+00 0.391D+00
 Coeff-Com:  0.855D+00
 Coeff-En:   0.000D+00 0.000D+00 0.000D+00 0.000D+00 0.000D+00 0.000D+00
 Coeff-En:   0.100D+01
 Coeff:     -0.745D-03 0.425D-02 0.218D-01-0.454D-01-0.225D+00 0.389D+00
 Coeff:      0.856D+00
 Gap=     0.277 Goal=   None    Shift=    0.000
 Gap=     0.325 Goal=   None    Shift=    0.000
 RMSDP=9.79D-05 MaxDP=1.79D-03 DE=-2.48D-04 OVMax= 7.52D-03

 Cycle   8  Pass 0  IDiag  1:
 E= -344.572422848887     Delta-E=       -0.000070678963 Rises=F Damp=F
 DIIS: error= 1.64D-04 at cycle   8 NSaved=   8.
 NSaved= 8 IEnMin= 8 EnMin= -344.572422848887     IErMin= 8 ErrMin= 1.64D-04
 ErrMax= 1.64D-04  0.00D+00 EMaxC= 1.00D-01 BMatC= 1.79D-05 BMatP= 6.32D-05
 IDIUse=3 WtCom= 9.98D-01 WtEn= 1.64D-03
 Coeff-Com: -0.730D-02 0.137D-01 0.610D-01 0.339D-01-0.171D+00-0.289D+00
 Coeff-Com:  0.219D+00 0.114D+01
 Coeff-En:   0.000D+00 0.000D+00 0.000D+00 0.000D+00 0.000D+00 0.000D+00
 Coeff-En:   0.000D+00 0.100D+01
 Coeff:     -0.729D-02 0.136D-01 0.609D-01 0.339D-01-0.171D+00-0.289D+00
 Coeff:      0.218D+00 0.114D+01
 Gap=     0.277 Goal=   None    Shift=    0.000
 Gap=     0.325 Goal=   None    Shift=    0.000
 RMSDP=9.25D-05 MaxDP=1.56D-03 DE=-7.07D-05 OVMax= 6.84D-03

 Cycle   9  Pass 0  IDiag  1:
 E= -344.572462639248     Delta-E=       -0.000039790361 Rises=F Damp=F
 DIIS: error= 7.43D-05 at cycle   9 NSaved=   9.
 NSaved= 9 IEnMin= 9 EnMin= -344.572462639248     IErMin= 9 ErrMin= 7.43D-05
 ErrMax= 7.43D-05  0.00D+00 EMaxC= 1.00D-01 BMatC= 5.59D-06 BMatP= 1.79D-05
 IDIUse=1 WtCom= 1.00D+00 WtEn= 0.00D+00
 Coeff-Com: -0.126D-02 0.212D-02 0.190D-02 0.616D-02 0.175D-01-0.126D+00
 Coeff-Com: -0.126D+00 0.205D+00 0.102D+01
 Coeff:     -0.126D-02 0.212D-02 0.190D-02 0.616D-02 0.175D-01-0.126D+00
 Coeff:     -0.126D+00 0.205D+00 0.102D+01
 Gap=     0.278 Goal=   None    Shift=    0.000
 Gap=     0.326 Goal=   None    Shift=    0.000
 RMSDP=4.61D-05 MaxDP=8.61D-04 DE=-3.98D-05 OVMax= 3.70D-03

 Failed to achieve initial convergence to 1.0D-08 in 10 cycles.
 Switch to full accuracy anyway.
 Cycle  10  Pass 1  IDiag  1:
 E= -344.572460280948     Delta-E=        0.000002358299 Rises=F Damp=F
 DIIS: error= 5.07D-05 at cycle   1 NSaved=   1.
 NSaved= 1 IEnMin= 1 EnMin= -344.572460280948     IErMin= 1 ErrMin= 5.07D-05
 ErrMax= 5.07D-05  0.00D+00 EMaxC= 1.00D-01 BMatC= 2.59D-06 BMatP= 2.59D-06
 IDIUse=1 WtCom= 1.00D+00 WtEn= 0.00D+00
 Coeff-Com:  0.100D+01
 Coeff:      0.100D+01
 Gap=     0.278 Goal=   None    Shift=    0.000
 Gap=     0.326 Goal=   None    Shift=    0.000
 RMSDP=4.61D-05 MaxDP=8.61D-04 DE= 2.36D-06 OVMax= 1.43D-03

 Cycle  11  Pass 1  IDiag  1:
 E= -344.572463974688     Delta-E=       -0.000003693740 Rises=F Damp=F
 DIIS: error= 4.11D-05 at cycle   2 NSaved=   2.
 NSaved= 2 IEnMin= 2 EnMin= -344.572463974688     IErMin= 2 ErrMin= 4.11D-05
 ErrMax= 4.11D-05  0.00D+00 EMaxC= 1.00D-01 BMatC= 1.39D-06 BMatP= 2.59D-06
 IDIUse=1 WtCom= 1.00D+00 WtEn= 0.00D+00
 Coeff-Com:  0.115D+00 0.885D+00
 Coeff:      0.115D+00 0.885D+00
 Gap=     0.278 Goal=   None    Shift=    0.000
 Gap=     0.326 Goal=   None    Shift=    0.000
 RMSDP=1.27D-05 MaxDP=2.47D-04 DE=-3.69D-06 OVMax= 1.03D-03

 Cycle  12  Pass 1  IDiag  1:
 E= -344.572466048139     Delta-E=       -0.000002073451 Rises=F Damp=F
 DIIS: error= 3.18D-05 at cycle   3 NSaved=   3.
 NSaved= 3 IEnMin= 3 EnMin= -344.572466048139     IErMin= 3 ErrMin= 3.18D-05
 ErrMax= 3.18D-05  0.00D+00 EMaxC= 1.00D-01 BMatC= 9.30D-07 BMatP= 1.39D-06
 IDIUse=1 WtCom= 1.00D+00 WtEn= 0.00D+00
 Coeff-Com: -0.542D+00 0.240D+00 0.130D+01
 Coeff:     -0.542D+00 0.240D+00 0.130D+01
 Gap=     0.278 Goal=   None    Shift=    0.000
 Gap=     0.326 Goal=   None    Shift=    0.000
 RMSDP=2.22D-05 MaxDP=4.77D-04 DE=-2.07D-06 OVMax= 1.80D-03

 Cycle  13  Pass 1  IDiag  1:
 E= -344.572468806796     Delta-E=       -0.000002758657 Rises=F Damp=F
 DIIS: error= 2.56D-05 at cycle   4 NSaved=   4.
 NSaved= 4 IEnMin= 4 EnMin= -344.572468806796     IErMin= 4 ErrMin= 2.56D-05
 ErrMax= 2.56D-05  0.00D+00 EMaxC= 1.00D-01 BMatC= 4.14D-07 BMatP= 9.30D-07
 IDIUse=1 WtCom= 1.00D+00 WtEn= 0.00D+00
 Coeff-Com: -0.222D+00-0.415D+00 0.348D+00 0.129D+01
 Coeff:     -0.222D+00-0.415D+00 0.348D+00 0.129D+01
 Gap=     0.278 Goal=   None    Shift=    0.000
 Gap=     0.326 Goal=   None    Shift=    0.000
 RMSDP=2.21D-05 MaxDP=4.39D-04 DE=-2.76D-06 OVMax= 1.83D-03

 Cycle  14  Pass 1  IDiag  1:
 E= -344.572470373496     Delta-E=       -0.000001566700 Rises=F Damp=F
 DIIS: error= 1.31D-05 at cycle   5 NSaved=   5.
 NSaved= 5 IEnMin= 5 EnMin= -344.572470373496     IErMin= 5 ErrMin= 1.31D-05
 ErrMax= 1.31D-05  0.00D+00 EMaxC= 1.00D-01 BMatC= 1.63D-07 BMatP= 4.14D-07
 IDIUse=1 WtCom= 1.00D+00 WtEn= 0.00D+00
 Coeff-Com:  0.146D+00-0.370D+00-0.474D+00 0.761D+00 0.937D+00
 Coeff:      0.146D+00-0.370D+00-0.474D+00 0.761D+00 0.937D+00
 Gap=     0.278 Goal=   None    Shift=    0.000
 Gap=     0.326 Goal=   None    Shift=    0.000
 RMSDP=1.54D-05 MaxDP=3.39D-04 DE=-1.57D-06 OVMax= 1.36D-03

 Cycle  15  Pass 1  IDiag  1:
 E= -344.572470806476     Delta-E=       -0.000000432980 Rises=F Damp=F
 DIIS: error= 5.29D-06 at cycle   6 NSaved=   6.
 NSaved= 6 IEnMin= 6 EnMin= -344.572470806476     IErMin= 6 ErrMin= 5.29D-06
 ErrMax= 5.29D-06  0.00D+00 EMaxC= 1.00D-01 BMatC= 2.53D-08 BMatP= 1.63D-07
 IDIUse=1 WtCom= 1.00D+00 WtEn= 0.00D+00
 Coeff-Com:  0.763D-01-0.754D-01-0.218D+00 0.103D+00 0.393D+00 0.721D+00
 Coeff:      0.763D-01-0.754D-01-0.218D+00 0.103D+00 0.393D+00 0.721D+00
 Gap=     0.278 Goal=   None    Shift=    0.000
 Gap=     0.326 Goal=   None    Shift=    0.000
 RMSDP=2.68D-06 MaxDP=5.56D-05 DE=-4.33D-07 OVMax= 2.55D-04

 Cycle  16  Pass 1  IDiag  1:
 E= -344.572470833191     Delta-E=       -0.000000026715 Rises=F Damp=F
 DIIS: error= 3.44D-06 at cycle   7 NSaved=   7.
 NSaved= 7 IEnMin= 7 EnMin= -344.572470833191     IErMin= 7 ErrMin= 3.44D-06
 ErrMax= 3.44D-06  0.00D+00 EMaxC= 1.00D-01 BMatC= 6.48D-09 BMatP= 2.53D-08
 IDIUse=1 WtCom= 1.00D+00 WtEn= 0.00D+00
 Coeff-Com: -0.295D-01 0.132D+00 0.108D+00-0.304D+00-0.198D+00 0.218D+00
 Coeff-Com:  0.107D+01
 Coeff:     -0.295D-01 0.132D+00 0.108D+00-0.304D+00-0.198D+00 0.218D+00
 Coeff:      0.107D+01
 Gap=     0.278 Goal=   None    Shift=    0.000
 Gap=     0.326 Goal=   None    Shift=    0.000
 RMSDP=2.23D-06 MaxDP=3.42D-05 DE=-2.67D-08 OVMax= 2.17D-04

 Cycle  17  Pass 1  IDiag  1:
 E= -344.572470845172     Delta-E=       -0.000000011981 Rises=F Damp=F
 DIIS: error= 1.62D-06 at cycle   8 NSaved=   8.
 NSaved= 8 IEnMin= 8 EnMin= -344.572470845172     IErMin= 8 ErrMin= 1.62D-06
 ErrMax= 1.62D-06  0.00D+00 EMaxC= 1.00D-01 BMatC= 1.08D-09 BMatP= 6.48D-09
 IDIUse=1 WtCom= 1.00D+00 WtEn= 0.00D+00
 Coeff-Com: -0.254D-01 0.550D-01 0.738D-01-0.111D+00-0.123D+00-0.941D-01
 Coeff-Com:  0.302D+00 0.923D+00
 Coeff:     -0.254D-01 0.550D-01 0.738D-01-0.111D+00-0.123D+00-0.941D-01
 Coeff:      0.302D+00 0.923D+00
 Gap=     0.278 Goal=   None    Shift=    0.000
 Gap=     0.326 Goal=   None    Shift=    0.000
 RMSDP=8.50D-07 MaxDP=1.46D-05 DE=-1.20D-08 OVMax= 8.62D-05

 Cycle  18  Pass 1  IDiag  1:
 E= -344.572470847179     Delta-E=       -0.000000002006 Rises=F Damp=F
 DIIS: error= 7.34D-07 at cycle   9 NSaved=   9.
 NSaved= 9 IEnMin= 9 EnMin= -344.572470847179     IErMin= 9 ErrMin= 7.34D-07
 ErrMax= 7.34D-07  0.00D+00 EMaxC= 1.00D-01 BMatC= 2.83D-10 BMatP= 1.08D-09
 IDIUse=1 WtCom= 1.00D+00 WtEn= 0.00D+00
 Coeff-Com:  0.304D-03-0.113D-01-0.663D-02 0.316D-01 0.120D-01-0.727D-01
 Coeff-Com: -0.152D+00 0.226D+00 0.972D+00
 Coeff:      0.304D-03-0.113D-01-0.663D-02 0.316D-01 0.120D-01-0.727D-01
 Coeff:     -0.152D+00 0.226D+00 0.972D+00
 Gap=     0.278 Goal=   None    Shift=    0.000
 Gap=     0.326 Goal=   None    Shift=    0.000
 RMSDP=4.25D-07 MaxDP=8.88D-06 DE=-2.01D-09 OVMax= 4.13D-05

 Cycle  19  Pass 1  IDiag  1:
 E= -344.572470847660     Delta-E=       -0.000000000482 Rises=F Damp=F
 DIIS: error= 3.47D-07 at cycle  10 NSaved=  10.
 NSaved=10 IEnMin=10 EnMin= -344.572470847660     IErMin=10 ErrMin= 3.47D-07
 ErrMax= 3.47D-07  0.00D+00 EMaxC= 1.00D-01 BMatC= 5.86D-11 BMatP= 2.83D-10
 IDIUse=1 WtCom= 1.00D+00 WtEn= 0.00D+00
 Coeff-Com:  0.766D-02-0.187D-01-0.259D-01 0.411D-01 0.436D-01 0.196D-01
 Coeff-Com: -0.114D+00-0.227D+00 0.109D+00 0.116D+01
 Coeff:      0.766D-02-0.187D-01-0.259D-01 0.411D-01 0.436D-01 0.196D-01
 Coeff:     -0.114D+00-0.227D+00 0.109D+00 0.116D+01
 Gap=     0.278 Goal=   None    Shift=    0.000
 Gap=     0.326 Goal=   None    Shift=    0.000
 RMSDP=1.98D-07 MaxDP=3.70D-06 DE=-4.82D-10 OVMax= 1.95D-05

 Cycle  20  Pass 1  IDiag  1:
 E= -344.572470847787     Delta-E=       -0.000000000127 Rises=F Damp=F
 DIIS: error= 1.35D-07 at cycle  11 NSaved=  11.
 NSaved=11 IEnMin=11 EnMin= -344.572470847787     IErMin=11 ErrMin= 1.35D-07
 ErrMax= 1.35D-07  0.00D+00 EMaxC= 1.00D-01 BMatC= 1.06D-11 BMatP= 5.86D-11
 IDIUse=1 WtCom= 1.00D+00 WtEn= 0.00D+00
 Coeff-Com: -0.158D-03 0.261D-02 0.140D-02-0.641D-02-0.308D-02 0.118D-01
 Coeff-Com:  0.302D-01-0.322D-01-0.202D+00-0.190D-01 0.122D+01
 Coeff:     -0.158D-03 0.261D-02 0.140D-02-0.641D-02-0.308D-02 0.118D-01
 Coeff:      0.302D-01-0.322D-01-0.202D+00-0.190D-01 0.122D+01
 Gap=     0.278 Goal=   None    Shift=    0.000
 Gap=     0.326 Goal=   None    Shift=    0.000
 RMSDP=8.21D-08 MaxDP=1.51D-06 DE=-1.27D-10 OVMax= 7.45D-06

 Cycle  21  Pass 1  IDiag  1:
 E= -344.572470847811     Delta-E=       -0.000000000024 Rises=F Damp=F
 DIIS: error= 8.48D-08 at cycle  12 NSaved=  12.
 NSaved=12 IEnMin=12 EnMin= -344.572470847811     IErMin=12 ErrMin= 8.48D-08
 ErrMax= 8.48D-08  0.00D+00 EMaxC= 1.00D-01 BMatC= 2.67D-12 BMatP= 1.06D-11
 IDIUse=1 WtCom= 1.00D+00 WtEn= 0.00D+00
 Coeff-Com: -0.142D-02 0.395D-02 0.512D-02-0.902D-02-0.886D-02 0.375D-03
 Coeff-Com:  0.292D-01 0.285D-01-0.793D-01-0.218D+00 0.332D+00 0.918D+00
 Coeff:     -0.142D-02 0.395D-02 0.512D-02-0.902D-02-0.886D-02 0.375D-03
 Coeff:      0.292D-01 0.285D-01-0.793D-01-0.218D+00 0.332D+00 0.918D+00
 Gap=     0.278 Goal=   None    Shift=    0.000
 Gap=     0.326 Goal=   None    Shift=    0.000
 RMSDP=3.00D-08 MaxDP=5.00D-07 DE=-2.42D-11 OVMax= 2.39D-06

 Cycle  22  Pass 1  IDiag  1:
 E= -344.572470847816     Delta-E=       -0.000000000004 Rises=F Damp=F
 DIIS: error= 4.16D-08 at cycle  13 NSaved=  13.
 NSaved=13 IEnMin=13 EnMin= -344.572470847816     IErMin=13 ErrMin= 4.16D-08
 ErrMax= 4.16D-08  0.00D+00 EMaxC= 1.00D-01 BMatC= 7.49D-13 BMatP= 2.67D-12
 IDIUse=1 WtCom= 1.00D+00 WtEn= 0.00D+00
 Coeff-Com: -0.179D-03-0.797D-04 0.627D-03 0.750D-04-0.935D-03-0.236D-02
 Coeff-Com: -0.232D-02 0.115D-01 0.433D-01-0.343D-01-0.264D+00 0.204D+00
 Coeff-Com:  0.105D+01
 Coeff:     -0.179D-03-0.797D-04 0.627D-03 0.750D-04-0.935D-03-0.236D-02
 Coeff:     -0.232D-02 0.115D-01 0.433D-01-0.343D-01-0.264D+00 0.204D+00
 Coeff:      0.105D+01
 Gap=     0.278 Goal=   None    Shift=    0.000
 Gap=     0.326 Goal=   None    Shift=    0.000
 RMSDP=1.50D-08 MaxDP=3.51D-07 DE=-4.43D-12 OVMax= 1.19D-06

 Cycle  23  Pass 1  IDiag  1:
 E= -344.572470847818     Delta-E=       -0.000000000002 Rises=F Damp=F
 DIIS: error= 2.26D-08 at cycle  14 NSaved=  14.
 NSaved=14 IEnMin=14 EnMin= -344.572470847818     IErMin=14 ErrMin= 2.26D-08
 ErrMax= 2.26D-08  0.00D+00 EMaxC= 1.00D-01 BMatC= 1.45D-13 BMatP= 7.49D-13
 IDIUse=1 WtCom= 1.00D+00 WtEn= 0.00D+00
 Coeff-Com:  0.430D-03-0.132D-02-0.146D-02 0.287D-02 0.264D-02-0.398D-04
 Coeff-Com: -0.922D-02-0.105D-01 0.295D-01 0.681D-01-0.126D+00-0.249D+00
 Coeff-Com:  0.552D-01 0.124D+01
 Coeff:      0.430D-03-0.132D-02-0.146D-02 0.287D-02 0.264D-02-0.398D-04
 Coeff:     -0.922D-02-0.105D-01 0.295D-01 0.681D-01-0.126D+00-0.249D+00
 Coeff:      0.552D-01 0.124D+01
 Gap=     0.278 Goal=   None    Shift=    0.000
 Gap=     0.326 Goal=   None    Shift=    0.000
 RMSDP=9.35D-09 MaxDP=1.75D-07 DE=-2.16D-12 OVMax= 8.11D-07

 SCF Done:  E(UwB97XD) =  -344.572470848     A.U. after   23 cycles
            NFock= 23  Conv=0.93D-08     -V/T= 2.0082
 <Sx>= 0.0000 <Sy>= 0.0000 <Sz>= 0.5000 <S**2>= 0.7921 S= 0.5208
 <L.S>=  0.00000000000    
 KE= 3.417586190949D+02 PE=-1.398136009836D+03 EE= 4.150942186876D+02
 Annihilation of the first spin contaminant:
 S**2 before annihilation     0.7921,   after     0.7508
 Leave Link  502 at Tue May 20 11:43:45 2025, MaxMem=  3758096384 cpu:              62.6 elap:              12.7
 (Enter /gpfs/fs1/soft/bebop/software/custom-built/gaussian/16-c.02/g16/l508.exe)
 QCSCF skips out because SCF is already converged.
 Leave Link  508 at Tue May 20 11:43:45 2025, MaxMem=  3758096384 cpu:               0.0 elap:               0.0
 (Enter /gpfs/fs1/soft/bebop/software/custom-built/gaussian/16-c.02/g16/l601.exe)
 Copying SCF densities to generalized density rwf, IOpCl= 1 IROHF=0.

 **********************************************************************

            Population analysis using the SCF Density.

 **********************************************************************

 Orbital symmetries:
 Alpha Orbitals:
       Occupied  (A) (A) (A) (A) (A) (A) (A) (A) (A) (A) (A) (A)
                 (A) (A) (A) (A) (A) (A) (A) (A) (A) (A) (A) (A)
                 (A) (A) (A)
       Virtual   (A) (A) (A) (A) (A) (A) (A) (A) (A) (A) (A) (A)
                 (A) (A) (A) (A) (A) (A) (A) (A) (A) (A) (A) (A)
                 (A) (A) (A) (A) (A) (A) (A) (A) (A) (A) (A) (A)
                 (A) (A) (A) (A) (A) (A) (A) (A) (A) (A) (A) (A)
                 (A) (A) (A) (A) (A) (A) (A) (A) (A) (A) (A) (A)
                 (A) (A) (A) (A) (A) (A) (A) (A) (A) (A) (A) (A)
                 (A) (A) (A) (A) (A) (A) (A) (A) (A) (A) (A) (A)
                 (A) (A) (A) (A) (A) (A) (A) (A) (A) (A) (A) (A)
                 (A) (A) (A) (A) (A) (A) (A) (A) (A) (A)
 Beta  Orbitals:
       Occupied  (A) (A) (A) (A) (A) (A) (A) (A) (A) (A) (A) (A)
                 (A) (A) (A) (A) (A) (A) (A) (A) (A) (A) (A) (A)
                 (A) (A)
       Virtual   (A) (A) (A) (A) (A) (A) (A) (A) (A) (A) (A) (A)
                 (A) (A) (A) (A) (A) (A) (A) (A) (A) (A) (A) (A)
                 (A) (A) (A) (A) (A) (A) (A) (A) (A) (A) (A) (A)
                 (A) (A) (A) (A) (A) (A) (A) (A) (A) (A) (A) (A)
                 (A) (A) (A) (A) (A) (A) (A) (A) (A) (A) (A) (A)
                 (A) (A) (A) (A) (A) (A) (A) (A) (A) (A) (A) (A)
                 (A) (A) (A) (A) (A) (A) (A) (A) (A) (A) (A) (A)
                 (A) (A) (A) (A) (A) (A) (A) (A) (A) (A) (A) (A)
                 (A) (A) (A) (A) (A) (A) (A) (A) (A) (A) (A)
 The electronic state is 2-A.
 Alpha  occ. eigenvalues --  -19.33721 -19.31935 -10.35996 -10.30173 -10.29660
 Alpha  occ. eigenvalues --  -10.29477 -10.29306  -1.24378  -1.03105  -0.92026
 Alpha  occ. eigenvalues --   -0.82640  -0.77029  -0.67323  -0.65364  -0.62229
 Alpha  occ. eigenvalues --   -0.59196  -0.57473  -0.54358  -0.50596  -0.48237
 Alpha  occ. eigenvalues --   -0.46635  -0.45320  -0.43970  -0.38982  -0.38562
 Alpha  occ. eigenvalues --   -0.32227  -0.23409
 Alpha virt. eigenvalues --    0.04376   0.11538   0.14158   0.14823   0.16758
 Alpha virt. eigenvalues --    0.18110   0.19860   0.22165   0.22640   0.24790
 Alpha virt. eigenvalues --    0.29236   0.35656   0.38908   0.44268   0.45981
 Alpha virt. eigenvalues --    0.48145   0.51820   0.52693   0.55110   0.57138
 Alpha virt. eigenvalues --    0.58553   0.60641   0.62897   0.64496   0.67226
 Alpha virt. eigenvalues --    0.67458   0.71774   0.72031   0.73247   0.73780
 Alpha virt. eigenvalues --    0.75226   0.76662   0.78983   0.80322   0.83978
 Alpha virt. eigenvalues --    0.85185   0.86420   0.90551   0.91173   0.98220
 Alpha virt. eigenvalues --    1.01819   1.03814   1.08220   1.11873   1.18507
 Alpha virt. eigenvalues --    1.19166   1.22040   1.30532   1.34124   1.36280
 Alpha virt. eigenvalues --    1.41480   1.44969   1.48154   1.51284   1.59474
 Alpha virt. eigenvalues --    1.67196   1.69663   1.71352   1.71520   1.73974
 Alpha virt. eigenvalues --    1.76757   1.78517   1.82617   1.83519   1.86539
 Alpha virt. eigenvalues --    1.88442   1.90835   1.93777   1.95807   2.00354
 Alpha virt. eigenvalues --    2.03771   2.05373   2.10826   2.11704   2.16858
 Alpha virt. eigenvalues --    2.18047   2.24980   2.26985   2.27181   2.30477
 Alpha virt. eigenvalues --    2.39341   2.42934   2.47023   2.48370   2.51945
 Alpha virt. eigenvalues --    2.52741   2.55586   2.60750   2.64761   2.71798
 Alpha virt. eigenvalues --    2.78511   2.84559   2.86346   2.87204   2.92777
 Alpha virt. eigenvalues --    3.02017   3.03209   3.06538   3.14837   3.17830
 Alpha virt. eigenvalues --    3.23642   3.36536   3.43855   3.57161   3.65369
 Alpha virt. eigenvalues --    3.96613
  Beta  occ. eigenvalues --  -19.33649 -19.31898 -10.35713 -10.30473 -10.29595
  Beta  occ. eigenvalues --  -10.29064 -10.28459  -1.24218  -1.02793  -0.91289
  Beta  occ. eigenvalues --   -0.81916  -0.75114  -0.66787  -0.64992  -0.61556
  Beta  occ. eigenvalues --   -0.58940  -0.57010  -0.53797  -0.50000  -0.47837
  Beta  occ. eigenvalues --   -0.45908  -0.44732  -0.43598  -0.38164  -0.36328
  Beta  occ. eigenvalues --   -0.30976
  Beta virt. eigenvalues --    0.01613   0.04610   0.12423   0.14576   0.16657
  Beta virt. eigenvalues --    0.17268   0.18467   0.20824   0.22574   0.22956
  Beta virt. eigenvalues --    0.25068   0.29750   0.35990   0.39110   0.44709
  Beta virt. eigenvalues --    0.46227   0.48513   0.52463   0.52977   0.55679
  Beta virt. eigenvalues --    0.57665   0.59375   0.61447   0.63333   0.65641
  Beta virt. eigenvalues --    0.67103   0.68330   0.72287   0.72798   0.74041
  Beta virt. eigenvalues --    0.74468   0.75766   0.77168   0.79762   0.80654
  Beta virt. eigenvalues --    0.84373   0.85414   0.86918   0.91283   0.91463
  Beta virt. eigenvalues --    0.98464   1.01940   1.04114   1.08473   1.12110
  Beta virt. eigenvalues --    1.18851   1.19583   1.22499   1.30947   1.35190
  Beta virt. eigenvalues --    1.36527   1.41802   1.45514   1.48470   1.51560
  Beta virt. eigenvalues --    1.59949   1.67343   1.70091   1.71668   1.71879
  Beta virt. eigenvalues --    1.74183   1.77201   1.78889   1.83428   1.84116
  Beta virt. eigenvalues --    1.86914   1.88656   1.91684   1.94485   1.97019
  Beta virt. eigenvalues --    2.01148   2.04335   2.05979   2.11123   2.12612
  Beta virt. eigenvalues --    2.17587   2.18613   2.26160   2.27375   2.27841
  Beta virt. eigenvalues --    2.31844   2.40220   2.43876   2.47883   2.48729
  Beta virt. eigenvalues --    2.52400   2.53002   2.56476   2.61851   2.65468
  Beta virt. eigenvalues --    2.72162   2.78996   2.84890   2.86788   2.87801
  Beta virt. eigenvalues --    2.93641   3.02050   3.03772   3.06995   3.15250
  Beta virt. eigenvalues --    3.18046   3.24095   3.36795   3.44118   3.57522
  Beta virt. eigenvalues --    3.65431   3.96720
          Condensed to atoms (all electrons):
               1          2          3          4          5          6
     1  C    5.023049   0.350027   0.405886  -0.052968  -0.048106  -0.080673
     2  C    0.350027   4.986158  -0.046654   0.481411   0.426383  -0.057419
     3  H    0.405886  -0.046654   0.629755   0.006157  -0.002597  -0.000200
     4  C   -0.052968   0.481411   0.006157   4.819066  -0.049384   0.498991
     5  H   -0.048106   0.426383  -0.002597  -0.049384   0.633781   0.009734
     6  C   -0.080673  -0.057419  -0.000200   0.498991   0.009734   5.074621
     7  H    0.009016  -0.045896  -0.000305   0.420081  -0.007436  -0.048041
     8  H   -0.009551  -0.023057   0.000506  -0.000145  -0.000315   0.371753
     9  H    0.003633   0.009543  -0.000025  -0.022767  -0.000172   0.377549
    10  C    0.520235  -0.051015  -0.025743  -0.036450   0.008665  -0.033470
    11  H   -0.039300   0.007937  -0.011216   0.003465  -0.000258  -0.006040
    12  O   -0.045099  -0.002590   0.002754  -0.006190   0.000007  -0.038897
    13  O    0.002985  -0.000598  -0.000054   0.000499   0.000011   0.004354
    14  H   -0.000320   0.000051  -0.000000   0.000028  -0.000002  -0.000718
               7          8          9         10         11         12
     1  C    0.009016  -0.009551   0.003633   0.520235  -0.039300  -0.045099
     2  C   -0.045896  -0.023057   0.009543  -0.051015   0.007937  -0.002590
     3  H   -0.000305   0.000506  -0.000025  -0.025743  -0.011216   0.002754
     4  C    0.420081  -0.000145  -0.022767  -0.036450   0.003465  -0.006190
     5  H   -0.007436  -0.000315  -0.000172   0.008665  -0.000258   0.000007
     6  C   -0.048041   0.371753   0.377549  -0.033470  -0.006040  -0.038897
     7  H    0.639375   0.004675  -0.010172   0.002824  -0.000006  -0.000431
     8  H    0.004675   0.599788  -0.035374   0.015003   0.005715  -0.009778
     9  H   -0.010172  -0.035374   0.640617   0.000437  -0.000216   0.000074
    10  C    0.002824   0.015003   0.000437   4.886182   0.393652   0.279709
    11  H   -0.000006   0.005715  -0.000216   0.393652   0.628343  -0.037131
    12  O   -0.000431  -0.009778   0.000074   0.279709  -0.037131   7.981435
    13  O    0.000010   0.000149  -0.000009  -0.052513   0.009099   0.099353
    14  H   -0.000002   0.000139  -0.000014   0.002430   0.001985  -0.017677
              13         14
     1  C    0.002985  -0.000320
     2  C   -0.000598   0.000051
     3  H   -0.000054  -0.000000
     4  C    0.000499   0.000028
     5  H    0.000011  -0.000002
     6  C    0.004354  -0.000718
     7  H    0.000010  -0.000002
     8  H    0.000149   0.000139
     9  H   -0.000009  -0.000014
    10  C   -0.052513   0.002430
    11  H    0.009099   0.001985
    12  O    0.099353  -0.017677
    13  O    7.771035   0.312232
    14  H    0.312232   0.502479
          Atomic-Atomic Spin Densities.
               1          2          3          4          5          6
     1  C   -0.094423  -0.059156   0.005206   0.012554   0.000267  -0.025792
     2  C   -0.059156   0.636067  -0.007576  -0.001355   0.006190  -0.022880
     3  H    0.005206  -0.007576   0.018177   0.000681  -0.000080  -0.002122
     4  C    0.012554  -0.001355   0.000681  -0.276654   0.000080  -0.024712
     5  H    0.000267   0.006190  -0.000080   0.000080  -0.031127  -0.000329
     6  C   -0.025792  -0.022880  -0.002122  -0.024712  -0.000329   0.899665
     7  H   -0.000383  -0.004120  -0.000049   0.003407   0.000087  -0.002273
     8  H    0.005729  -0.000742   0.000340   0.001606   0.000004  -0.008875
     9  H    0.000151  -0.000430   0.000025  -0.000292   0.000013  -0.002122
    10  C    0.045033  -0.016328  -0.003601   0.002816  -0.000495  -0.079430
    11  H   -0.001451   0.000067   0.000316  -0.000174   0.000013   0.000332
    12  O    0.001154   0.003823   0.000379   0.004531  -0.000006  -0.040585
    13  O    0.000071  -0.000129  -0.000008  -0.000171  -0.000001   0.002296
    14  H   -0.000027  -0.000024  -0.000004   0.000004   0.000000   0.000555
               7          8          9         10         11         12
     1  C   -0.000383   0.005729   0.000151   0.045033  -0.001451   0.001154
     2  C   -0.004120  -0.000742  -0.000430  -0.016328   0.000067   0.003823
     3  H   -0.000049   0.000340   0.000025  -0.003601   0.000316   0.000379
     4  C    0.003407   0.001606  -0.000292   0.002816  -0.000174   0.004531
     5  H    0.000087   0.000004   0.000013  -0.000495   0.000013  -0.000006
     6  C   -0.002273  -0.008875  -0.002122  -0.079430   0.000332  -0.040585
     7  H    0.022686  -0.000515  -0.000618  -0.000566   0.000000  -0.000179
     8  H   -0.000515  -0.032335   0.003656   0.004382  -0.000072   0.002148
     9  H   -0.000618   0.003656  -0.031080   0.002522   0.000014   0.000310
    10  C   -0.000566   0.004382   0.002522   0.266135   0.002409  -0.014679
    11  H    0.000000  -0.000072   0.000014   0.002409  -0.013424   0.000208
    12  O   -0.000179   0.002148   0.000310  -0.014679   0.000208   0.047498
    13  O    0.000004  -0.000123  -0.000021  -0.001103   0.000465  -0.004569
    14  H    0.000002  -0.000025  -0.000032   0.000413  -0.000062  -0.000780
              13         14
     1  C    0.000071  -0.000027
     2  C   -0.000129  -0.000024
     3  H   -0.000008  -0.000004
     4  C   -0.000171   0.000004
     5  H   -0.000001   0.000000
     6  C    0.002296   0.000555
     7  H    0.000004   0.000002
     8  H   -0.000123  -0.000025
     9  H   -0.000021  -0.000032
    10  C   -0.001103   0.000413
    11  H    0.000465  -0.000062
    12  O   -0.004569  -0.000780
    13  O    0.018464   0.000111
    14  H    0.000111  -0.000260
 Mulliken charges and spin densities:
               1          2
     1  C   -0.038814  -0.111067
     2  C   -0.034282   0.533407
     3  H    0.041737   0.011683
     4  C   -0.061796  -0.277679
     5  H    0.029689  -0.025385
     6  C   -0.071545   0.693728
     7  H    0.036308   0.017483
     8  H    0.080490  -0.024823
     9  H    0.036893  -0.027904
    10  C    0.090053   0.207507
    11  H    0.043970  -0.011359
    12  O   -0.205539  -0.000747
    13  O   -0.146553   0.015284
    14  H    0.199389  -0.000128
 Sum of Mulliken charges =  -0.00000   1.00000
 Mulliken charges and spin densities with hydrogens summed into heavy atoms:
               1          2
     1  C    0.002923  -0.099384
     2  C   -0.004592   0.508022
     4  C   -0.025487  -0.260196
     6  C    0.045837   0.641001
    10  C    0.134024   0.196148
    12  O   -0.205539  -0.000747
    13  O    0.052835   0.015156
 Electronic spatial extent (au):  <R**2>=            734.1443
 Charge=             -0.0000 electrons
 Dipole moment (field-independent basis, Debye):
    X=             -0.6361    Y=              0.9260    Z=              1.0502  Tot=              1.5379
 Quadrupole moment (field-independent basis, Debye-Ang):
   XX=            -37.3849   YY=            -38.8752   ZZ=            -41.6365
   XY=             -4.7318   XZ=             -3.0764   YZ=             -1.6877
 Traceless Quadrupole moment (field-independent basis, Debye-Ang):
   XX=              1.9140   YY=              0.4237   ZZ=             -2.3377
   XY=             -4.7318   XZ=             -3.0764   YZ=             -1.6877
 Octapole moment (field-independent basis, Debye-Ang**2):
  XXX=            -34.8881  YYY=              3.4448  ZZZ=             -0.5654  XYY=             -7.0877
  XXY=             12.6293  XXZ=             -6.0677  XZZ=             -5.6585  YZZ=              0.0248
  YYZ=             -0.0576  XYZ=              0.6232
 Hexadecapole moment (field-independent basis, Debye-Ang**3):
 XXXX=           -508.3001 YYYY=           -243.5971 ZZZZ=           -110.2536 XXXY=            -48.8494
 XXXZ=            -10.0783 YYYX=            -11.2443 YYYZ=             -8.6108 ZZZX=              1.2899
 ZZZY=             -3.0299 XXYY=           -121.8842 XXZZ=           -112.3685 YYZZ=            -59.3919
 XXYZ=             -6.4909 YYXZ=             -1.6897 ZZXY=             -1.8322
 N-N= 2.967107012060D+02 E-N=-1.398136009759D+03  KE= 3.417586190949D+02
                          Isotropic Fermi Contact Couplings
        Atom                 a.u.       MegaHertz       Gauss      10(-4) cm-1
     1  C(13)             -0.03884     -43.66663     -15.58134     -14.56562
     2  C(13)              0.09524     107.07189      38.20591      35.71534
     3  H(1)               0.00504      22.52258       8.03662       7.51273
     4  C(13)             -0.07624     -85.71256     -30.58437     -28.59063
     5  H(1)              -0.00788     -35.20107     -12.56062     -11.74181
     6  C(13)              0.18585     208.92801      74.55071      69.69088
     7  H(1)               0.00681      30.46180      10.86953      10.16096
     8  H(1)              -0.00951     -42.51428     -15.17015     -14.18124
     9  H(1)              -0.00751     -33.54953     -11.97131     -11.19092
    10  C(13)              0.04237      47.63445      16.99715      15.88914
    11  H(1)              -0.00354     -15.80357      -5.63911      -5.27150
    12  O(17)              0.15397     -93.33896     -33.30566     -31.13453
    13  O(17)             -0.00200       1.21050       0.43194       0.40378
    14  H(1)              -0.00018      -0.79896      -0.28509      -0.26650
 --------------------------------------------------------
       Center         ----  Spin Dipole Couplings  ----
                      3XX-RR        3YY-RR        3ZZ-RR
 --------------------------------------------------------
     1   Atom        0.016333      0.009279     -0.025612
     2   Atom       -0.004005     -0.260518      0.264523
     3   Atom        0.000254      0.005636     -0.005890
     4   Atom       -0.066765      0.106399     -0.039634
     5   Atom        0.014827     -0.019921      0.005093
     6   Atom        0.458534     -0.237286     -0.221248
     7   Atom       -0.002154      0.004144     -0.001990
     8   Atom       -0.021285     -0.023129      0.044414
     9   Atom       -0.008966      0.051023     -0.042057
    10   Atom       -0.076937      0.048872      0.028065
    11   Atom        0.000408     -0.006405      0.005997
    12   Atom       -0.028496     -0.004686      0.033181
    13   Atom        0.049061     -0.016805     -0.032256
    14   Atom        0.005078     -0.000102     -0.004976
 --------------------------------------------------------
                        XY            XZ            YZ
 --------------------------------------------------------
     1   Atom       -0.024811     -0.041923     -0.032164
     2   Atom       -0.060025      0.367924     -0.071196
     3   Atom       -0.001859     -0.004052     -0.000728
     4   Atom       -0.010139     -0.164971      0.014099
     5   Atom       -0.028055     -0.010748      0.014792
     6   Atom        0.312165      0.345436      0.123545
     7   Atom       -0.005595     -0.006374      0.006930
     8   Atom        0.012430      0.008099     -0.032084
     9   Atom       -0.008792      0.016564      0.000978
    10   Atom        0.101869      0.086815      0.168258
    11   Atom        0.013932     -0.013316     -0.002584
    12   Atom       -0.021890     -0.004115      0.048788
    13   Atom        0.043768      0.017735      0.005432
    14   Atom       -0.002796      0.001699      0.000219
 --------------------------------------------------------


 ---------------------------------------------------------------------------------
              Anisotropic Spin Dipole Couplings in Principal Axis System
 ---------------------------------------------------------------------------------

       Atom             a.u.   MegaHertz   Gauss  10(-4) cm-1        Axes

              Baa    -0.0717    -9.623    -3.434    -3.210  0.4841  0.4470  0.7522
     1 C(13)  Bbb     0.0284     3.814     1.361     1.272 -0.0061  0.8613 -0.5080
              Bcc     0.0433     5.809     2.073     1.938  0.8750 -0.2414 -0.4197
 
              Baa    -0.2761   -37.047   -13.219   -12.357  0.4615  0.8642 -0.2003
     2 C(13)  Bbb    -0.2567   -34.445   -12.291   -11.490  0.6795 -0.4896 -0.5465
              Bcc     0.5328    71.491    25.510    23.847  0.5704 -0.1161  0.8131
 
              Baa    -0.0081    -4.303    -1.535    -1.435  0.4549  0.1087  0.8839
     3 H(1)   Bbb     0.0018     0.972     0.347     0.324  0.8277  0.3148 -0.4646
              Bcc     0.0062     3.331     1.189     1.111 -0.3287  0.9429  0.0532
 
              Baa    -0.2187   -29.353   -10.474    -9.791  0.7353 -0.0065  0.6777
     4 C(13)  Bbb     0.0919    12.329     4.399     4.113  0.4405  0.7645 -0.4706
              Bcc     0.1269    17.024     6.074     5.678 -0.5151  0.6445  0.5650
 
              Baa    -0.0371   -19.794    -7.063    -6.603  0.4340  0.8790 -0.1976
     5 H(1)   Bbb    -0.0017    -0.913    -0.326    -0.305  0.4889 -0.0455  0.8712
              Bcc     0.0388    20.707     7.389     6.907  0.7567 -0.4747 -0.4495
 
              Baa    -0.3688   -49.493   -17.660   -16.509 -0.4761  0.3892  0.7886
     6 C(13)  Bbb    -0.3520   -47.239   -16.856   -15.757 -0.1195  0.8598 -0.4965
              Bcc     0.7209    96.731    34.516    32.266  0.8712  0.3306  0.3628
 
              Baa    -0.0086    -4.570    -1.631    -1.524  0.6383 -0.1325  0.7583
     7 H(1)   Bbb    -0.0045    -2.421    -0.864    -0.808  0.6037  0.6973 -0.3863
              Bcc     0.0131     6.991     2.495     2.332 -0.4776  0.7044  0.5251
 
              Baa    -0.0449   -23.969    -8.553    -7.995 -0.5254  0.7845  0.3294
     8 H(1)   Bbb    -0.0124    -6.622    -2.363    -2.209  0.8500  0.5013  0.1619
              Bcc     0.0573    30.592    10.916    10.204  0.0381 -0.3650  0.9302
 
              Baa    -0.0491   -26.201    -9.349    -8.740 -0.3891 -0.0432  0.9202
     9 H(1)   Bbb    -0.0032    -1.707    -0.609    -0.569  0.9095  0.1404  0.3912
              Bcc     0.0523    27.908     9.958     9.309 -0.1461  0.9892 -0.0154
 
              Baa    -0.1361   -18.264    -6.517    -6.092 -0.6546  0.6733 -0.3439
    10 C(13)  Bbb    -0.1240   -16.638    -5.937    -5.550 -0.6600 -0.2869  0.6943
              Bcc     0.2601    34.902    12.454    11.642  0.3688  0.6814  0.6322
 
              Baa    -0.0192   -10.252    -3.658    -3.420 -0.6766  0.6778 -0.2879
    11 H(1)   Bbb    -0.0022    -1.182    -0.422    -0.394  0.3197  0.6225  0.7143
              Bcc     0.0214    11.434     4.080     3.814  0.6634  0.3912 -0.6379
 
              Baa    -0.0505     3.656     1.305     1.220  0.6180  0.6921 -0.3730
    12 O(17)  Bbb    -0.0187     1.350     0.482     0.450  0.7691 -0.4338  0.4693
              Bcc     0.0692    -5.006    -1.786    -1.670 -0.1630  0.5769  0.8004
 
              Baa    -0.0404     2.927     1.044     0.976 -0.4577  0.7310  0.5060
    13 O(17)  Bbb    -0.0336     2.432     0.868     0.811  0.0965 -0.5249  0.8456
              Bcc     0.0741    -5.358    -1.912    -1.787  0.8838  0.4359  0.1697
 
              Baa    -0.0054    -2.857    -1.019    -0.953 -0.1968 -0.1452  0.9696
    14 H(1)   Bbb    -0.0011    -0.606    -0.216    -0.202  0.3534  0.9120  0.2083
              Bcc     0.0065     3.462     1.235     1.155  0.9145 -0.3837  0.1282
 

 ---------------------------------------------------------------------------------

 No NMR shielding tensors so no spin-rotation constants.
 Leave Link  601 at Tue May 20 11:43:45 2025, MaxMem=  3758096384 cpu:               0.8 elap:               0.2
 (Enter /gpfs/fs1/soft/bebop/software/custom-built/gaussian/16-c.02/g16/l701.exe)
 ... and contract with generalized density number  0.
 Compute integral first derivatives.
 R6Disp: Adding Grimme-D2 dispersion energy 1st derivatives to the gradient.
   1 Symmetry operations used in ECPInt.
 ECPInt:  NShTT=    2016 NPrTT=    7252 LenC2=    2009 LenP2D=    5976.
 LDataN:  DoStor=T MaxTD1= 5 Len=  102
 Leave Link  701 at Tue May 20 11:43:45 2025, MaxMem=  3758096384 cpu:               0.5 elap:               0.1
 (Enter /gpfs/fs1/soft/bebop/software/custom-built/gaussian/16-c.02/g16/l702.exe)
 L702 exits ... SP integral derivatives will be done elsewhere.
 Leave Link  702 at Tue May 20 11:43:45 2025, MaxMem=  3758096384 cpu:               0.1 elap:               0.0
 (Enter /gpfs/fs1/soft/bebop/software/custom-built/gaussian/16-c.02/g16/l703.exe)
 Integral derivatives from FoFJK, PRISM(SPDF).
 Compute integral first derivatives, UseDBF=F ICtDFT=           0.
 Calling FoFJK, ICntrl=      2127 FMM=F ISym2X=0 I1Cent= 0 IOpClX= 1 NMat=1 NMatS=1 NMatT=0.
 FoFJK:  IHMeth= 1 ICntrl=    2127 DoSepK=T KAlg= 0 I1Cent=           0 FoldK=F
 IRaf=         1 NMat=       1 IRICut=       1 DoRegI=T DoRafI=F ISym2E= 0 IDoP0=0 IntGTp=1.
 FoFCou: FMM=F IPFlag=           0 FMFlag=      100000 FMFlg1=         800
         NFxFlg=           0 DoJE=F BraDBF=F KetDBF=F FulRan=T
         wScrn=  0.000000 ICntrl=      2527 IOpCl=  0 I1Cent=           0 NGrid=           0
         NMat0=    1 NMatS0=      1 NMatT0=    0 NMatD0=    1 NMtDS0=    0 NMtDT0=    0
 Symmetry not used in FoFCou.
 Leave Link  703 at Tue May 20 11:43:47 2025, MaxMem=  3758096384 cpu:              12.2 elap:               2.1
 (Enter /gpfs/fs1/soft/bebop/software/custom-built/gaussian/16-c.02/g16/l716.exe)
 Dipole        =-2.50267468D-01 3.64299859D-01 4.13196146D-01
 ***** Axes restored to original set *****
 -------------------------------------------------------------------
 Center     Atomic                   Forces (Hartrees/Bohr)
 Number     Number              X              Y              Z
 -------------------------------------------------------------------
      1        6          -0.000169211   -0.000241544    0.001193391
      2        6           0.000391903    0.000187866    0.000396122
      3        1          -0.000251082   -0.000004241   -0.000153767
      4        6           0.000303614    0.000134407    0.000141335
      5        1          -0.000077120    0.000012538    0.000072854
      6        6          -0.013247992   -0.042231737    0.049609265
      7        1           0.000026436   -0.000048410    0.000023642
      8        1           0.000030246   -0.000209758    0.000055827
      9        1          -0.000083475    0.000044288   -0.000078042
     10        6           0.013802357    0.042095007   -0.050864680
     11        1          -0.000381655   -0.000293765   -0.000038904
     12        8          -0.000035884    0.000289993   -0.000145602
     13        8          -0.000287049    0.000280245   -0.000172747
     14        1          -0.000021088   -0.000014891   -0.000038694
 -------------------------------------------------------------------
 Cartesian Forces:  Max     0.050864680 RMS     0.014616122
 -----------------------------------------------------------------------------------------------
                       Internal Coordinate Forces (Hartree/Bohr or radian)
  Cent   Atom   N1       Length/X         N2         Alpha/Y        N3         Beta/Z          J
 -----------------------------------------------------------------------------------------------
      1  C 
      2  C        1  -0.001114(     1)
      3  H        1  -0.000125(     2)      2   0.000551(    14)
      4  C        2  -0.000752(     3)      1  -0.001615(    15)      3  -0.000002(    26)     0
      5  H        2  -0.000001(     4)      1   0.000185(    16)      4   0.000098(    27)     0
      6  C        4   0.001154(     5)      2   0.002096(    17)      1   0.000213(    28)     0
      7  H        4   0.000015(     6)      2   0.000030(    18)      6  -0.000099(    29)     0
      8  H        6   0.000054(     7)      4   0.000121(    19)      2  -0.000055(    30)     0
      9  H        6   0.000021(     8)      4   0.000121(    20)      8   0.000192(    31)     0
     10  C        6   0.067900(     9)      4   0.005478(    21)      8  -0.000594(    32)     0
     11  H       10   0.000084(    10)      6  -0.000753(    22)      4   0.000702(    33)     0
     12  O       10   0.000331(    11)      6   0.001133(    23)     11   0.000199(    34)     0
     13  O       12   0.000412(    12)     10   0.000419(    24)      1  -0.000305(    35)     0
     14  H       13   0.000023(    13)     12   0.000058(    25)     10  -0.000046(    36)     0
 -----------------------------------------------------------------------------------------------
 Internal  Forces:  Max     0.067900067 RMS     0.011370469
 Force constants in internal coordinates: 
                1             2             3             4             5 
      1  0.636133D+00
      2  0.000000D+00  0.344113D+00
      3 -0.520849D-01  0.000000D+00  0.722684D+00
      4  0.000000D+00  0.000000D+00  0.000000D+00  0.347895D+00
      5 -0.240172D+00  0.000000D+00  0.238319D+00  0.000000D+00  0.862771D+00
      6  0.000000D+00  0.000000D+00  0.000000D+00  0.000000D+00  0.000000D+00
      7  0.000000D+00  0.000000D+00  0.000000D+00  0.000000D+00  0.000000D+00
      8  0.000000D+00  0.000000D+00  0.000000D+00  0.000000D+00  0.000000D+00
      9 -0.110495D+00  0.000000D+00 -0.891594D-01  0.000000D+00  0.276701D-01
     10  0.000000D+00  0.000000D+00  0.000000D+00  0.000000D+00  0.000000D+00
     11  0.000000D+00  0.000000D+00  0.000000D+00  0.000000D+00  0.000000D+00
     12  0.000000D+00  0.000000D+00  0.000000D+00  0.000000D+00  0.000000D+00
     13  0.000000D+00  0.000000D+00  0.000000D+00  0.000000D+00  0.000000D+00
     14 -0.520936D-01  0.000000D+00 -0.375523D-01  0.000000D+00  0.202542D-01
     15 -0.260936D+00  0.000000D+00  0.883790D+00  0.000000D+00  0.898491D+00
     16  0.000000D+00  0.000000D+00  0.000000D+00  0.000000D+00  0.000000D+00
     17 -0.895897D+00  0.000000D+00  0.119594D+01  0.000000D+00  0.170628D+01
     18  0.000000D+00  0.000000D+00  0.000000D+00  0.000000D+00  0.000000D+00
     19 -0.462871D-03  0.000000D+00 -0.350730D-04  0.000000D+00  0.509743D-03
     20  0.539436D-03  0.000000D+00  0.408745D-04  0.000000D+00 -0.594061D-03
     21 -0.115309D+01  0.000000D+00  0.875232D+00  0.000000D+00  0.168924D+01
     22  0.334135D-01  0.000000D+00  0.385027D-01  0.000000D+00  0.293043D-02
     23  0.419792D-01  0.000000D+00  0.460454D-01  0.000000D+00  0.111094D-02
     24  0.000000D+00  0.000000D+00  0.000000D+00  0.000000D+00  0.000000D+00
     25  0.000000D+00  0.000000D+00  0.000000D+00  0.000000D+00  0.000000D+00
     26 -0.100387D-01  0.000000D+00  0.434344D-02  0.000000D+00  0.166924D-01
     27  0.000000D+00  0.000000D+00 -0.319571D-02  0.000000D+00 -0.352946D-02
     28  0.116165D+00  0.000000D+00 -0.336719D+00  0.000000D+00 -0.323468D+00
     29  0.000000D+00  0.000000D+00  0.000000D+00  0.000000D+00  0.000000D+00
     30  0.399319D+00  0.000000D+00 -0.735811D+00  0.000000D+00 -0.865498D+00
     31 -0.293540D-03  0.000000D+00 -0.222423D-04  0.000000D+00  0.323265D-03
     32  0.399474D+00  0.000000D+00 -0.735799D+00  0.000000D+00 -0.865669D+00
     33 -0.955430D-01  0.000000D+00 -0.386073D-01  0.000000D+00  0.705744D-01
     34 -0.580697D-01  0.000000D+00 -0.166958D-01  0.000000D+00  0.503703D-01
     35  0.102369D-01  0.000000D+00  0.155424D-01  0.000000D+00  0.503537D-02
     36  0.000000D+00  0.000000D+00  0.000000D+00  0.000000D+00  0.000000D+00
                6             7             8             9            10 
      6  0.342525D+00
      7  0.000000D+00  0.351148D+00
      8  0.000000D+00  0.000000D+00  0.342186D+00
      9  0.000000D+00  0.000000D+00  0.000000D+00  0.172772D+00
     10  0.000000D+00  0.000000D+00  0.000000D+00  0.000000D+00  0.340722D+00
     11  0.000000D+00  0.000000D+00  0.000000D+00  0.000000D+00  0.000000D+00
     12  0.000000D+00  0.000000D+00  0.000000D+00  0.000000D+00  0.000000D+00
     13  0.000000D+00  0.000000D+00  0.000000D+00  0.000000D+00  0.000000D+00
     14  0.000000D+00  0.000000D+00  0.000000D+00  0.439827D-01  0.000000D+00
     15  0.000000D+00  0.000000D+00  0.000000D+00 -0.257884D+00  0.000000D+00
     16  0.000000D+00  0.000000D+00  0.000000D+00  0.000000D+00  0.000000D+00
     17  0.000000D+00  0.000000D+00  0.000000D+00 -0.376329D-01  0.000000D+00
     18  0.000000D+00  0.000000D+00  0.000000D+00  0.000000D+00  0.000000D+00
     19  0.000000D+00  0.000000D+00  0.000000D+00  0.000000D+00  0.000000D+00
     20  0.000000D+00  0.000000D+00  0.000000D+00  0.000000D+00  0.000000D+00
     21  0.000000D+00  0.000000D+00  0.000000D+00  0.279146D+00  0.000000D+00
     22  0.000000D+00  0.000000D+00  0.000000D+00 -0.470791D-01  0.000000D+00
     23  0.000000D+00  0.000000D+00  0.000000D+00 -0.561017D-01  0.000000D+00
     24  0.000000D+00  0.000000D+00  0.000000D+00  0.000000D+00  0.000000D+00
     25  0.000000D+00  0.000000D+00  0.000000D+00  0.000000D+00  0.000000D+00
     26  0.000000D+00  0.000000D+00  0.000000D+00 -0.668031D-02  0.000000D+00
     27  0.000000D+00  0.000000D+00  0.000000D+00  0.418259D-02  0.000000D+00
     28  0.000000D+00  0.000000D+00  0.000000D+00  0.739427D-02  0.000000D+00
     29  0.000000D+00  0.000000D+00  0.000000D+00  0.000000D+00  0.000000D+00
     30  0.000000D+00  0.000000D+00  0.000000D+00 -0.224364D-02  0.000000D+00
     31  0.000000D+00  0.000000D+00  0.000000D+00  0.000000D+00  0.000000D+00
     32  0.000000D+00  0.000000D+00  0.000000D+00 -0.224364D-02  0.000000D+00
     33  0.000000D+00  0.000000D+00  0.000000D+00  0.410545D-01  0.000000D+00
     34  0.000000D+00  0.000000D+00  0.000000D+00  0.160928D-01  0.000000D+00
     35  0.000000D+00  0.000000D+00  0.000000D+00 -0.193269D-01  0.000000D+00
     36  0.000000D+00  0.000000D+00  0.000000D+00  0.000000D+00  0.000000D+00
               11            12            13            14            15 
     11  0.509958D+00
     12  0.000000D+00  0.408031D+00
     13  0.000000D+00  0.000000D+00  0.539946D+00
     14  0.000000D+00  0.000000D+00  0.000000D+00  0.316796D+00
     15  0.000000D+00  0.000000D+00  0.000000D+00 -0.178026D+00  0.372408D+01
     16  0.000000D+00  0.000000D+00  0.000000D+00  0.000000D+00  0.159599D+00
     17  0.000000D+00  0.000000D+00  0.000000D+00 -0.523780D-01  0.460275D+01
     18  0.000000D+00  0.000000D+00  0.000000D+00  0.000000D+00  0.203777D-05
     19  0.000000D+00  0.000000D+00  0.000000D+00  0.000000D+00  0.527201D-02
     20  0.000000D+00  0.000000D+00  0.000000D+00  0.000000D+00  0.327954D-02
     21  0.000000D+00  0.000000D+00  0.000000D+00  0.981712D-01  0.358710D+01
     22  0.000000D+00  0.000000D+00  0.000000D+00 -0.788321D-02  0.540905D-01
     23  0.000000D+00  0.000000D+00  0.000000D+00  0.929093D-02  0.108742D+00
     24  0.000000D+00  0.000000D+00  0.000000D+00  0.000000D+00  0.000000D+00
     25  0.000000D+00  0.000000D+00  0.000000D+00  0.000000D+00  0.000000D+00
     26  0.000000D+00  0.000000D+00  0.000000D+00  0.777935D-02 -0.753946D-02
     27  0.000000D+00  0.000000D+00  0.000000D+00  0.000000D+00 -0.191005D-01
     28  0.000000D+00  0.000000D+00  0.000000D+00  0.143128D+00 -0.127976D+01
     29  0.000000D+00  0.000000D+00  0.000000D+00  0.000000D+00 -0.877219D-03
     30  0.000000D+00  0.000000D+00  0.000000D+00  0.164195D+00 -0.276546D+01
     31  0.000000D+00  0.000000D+00  0.000000D+00  0.000000D+00 -0.607023D-03
     32  0.000000D+00  0.000000D+00  0.000000D+00  0.164195D+00 -0.276430D+01
     33  0.000000D+00  0.000000D+00  0.000000D+00 -0.223023D-04 -0.137063D-01
     34  0.000000D+00  0.000000D+00  0.000000D+00  0.251417D-02  0.185905D-01
     35  0.000000D+00  0.000000D+00  0.000000D+00  0.000000D+00  0.343887D-01
     36  0.000000D+00  0.000000D+00  0.000000D+00  0.000000D+00  0.000000D+00
               16            17            18            19            20 
     16  0.319668D+00
     17  0.000000D+00  0.822822D+01
     18  0.000000D+00  0.159654D+00  0.319794D+00
     19  0.000000D+00  0.652400D-02  0.000000D+00  0.334930D+00
     20  0.000000D+00  0.163730D-02  0.000000D+00  0.147345D+00  0.365119D+00
     21  0.000000D+00  0.725146D+01  0.000000D+00 -0.278828D-01  0.663529D-01
     22  0.000000D+00  0.231007D-02  0.000000D+00  0.000000D+00  0.000000D+00
     23  0.000000D+00  0.532681D-01  0.000000D+00  0.000000D+00  0.000000D+00
     24  0.000000D+00  0.000000D+00  0.000000D+00  0.000000D+00  0.000000D+00
     25  0.000000D+00  0.000000D+00  0.000000D+00  0.000000D+00  0.000000D+00
     26 -0.159103D-03  0.239477D-01  0.172814D-04  0.116306D-02 -0.352730D-02
     27 -0.377489D-02 -0.180113D-01  0.000000D+00  0.000000D+00  0.000000D+00
     28 -0.330991D-02 -0.168386D+01  0.255670D-04 -0.113325D-02 -0.581318D-02
     29 -0.165496D-02  0.483429D-02  0.250530D-02  0.000000D+00  0.000000D+00
     30  0.000000D+00 -0.413592D+01  0.430663D-02 -0.109792D-02 -0.384159D-02
     31  0.000000D+00  0.957077D-03  0.143554D-02 -0.366297D-01  0.154887D-01
     32  0.000000D+00 -0.413632D+01  0.143554D-02 -0.409926D-01 -0.575429D-01
     33  0.000000D+00  0.271036D+00  0.000000D+00 -0.479134D-02  0.558389D-02
     34  0.000000D+00  0.208193D+00  0.000000D+00 -0.239567D-02  0.279195D-02
     35  0.000000D+00  0.283497D-01  0.000000D+00  0.000000D+00  0.000000D+00
     36  0.000000D+00  0.000000D+00  0.000000D+00  0.000000D+00  0.000000D+00
               21            22            23            24            25 
     21  0.799851D+01
     22 -0.123881D+00  0.301822D+00
     23 -0.912379D-01  0.467066D-01  0.466752D+00
     24  0.000000D+00  0.000000D+00  0.000000D+00  0.250000D+00
     25  0.000000D+00  0.000000D+00  0.000000D+00  0.000000D+00  0.160000D+00
     26  0.381298D-01  0.231067D-01 -0.311190D-01  0.000000D+00  0.000000D+00
     27 -0.147178D-01  0.000000D+00  0.000000D+00  0.000000D+00  0.000000D+00
     28 -0.138175D+01  0.701224D-02  0.775581D-01  0.000000D+00  0.000000D+00
     29  0.000000D+00  0.000000D+00  0.000000D+00  0.000000D+00  0.000000D+00
     30 -0.370111D+01  0.236582D-01  0.124922D+00  0.000000D+00  0.000000D+00
     31  0.770164D-01  0.000000D+00  0.000000D+00  0.000000D+00  0.000000D+00
     32 -0.369799D+01  0.236582D-01  0.124922D+00  0.000000D+00  0.000000D+00
     33  0.389244D+00  0.877978D-02 -0.294589D-02  0.000000D+00  0.000000D+00
     34  0.257336D+00  0.369547D-01 -0.823327D-01  0.000000D+00  0.000000D+00
     35 -0.216200D-01  0.221752D-01  0.388489D-01  0.000000D+00  0.000000D+00
     36  0.000000D+00  0.000000D+00  0.000000D+00  0.000000D+00  0.000000D+00
               26            27            28            29            30 
     26  0.142255D+00
     27  0.128513D-01  0.107492D+00
     28  0.941519D-01 -0.735480D-01  0.149186D+01
     29 -0.503166D-03 -0.216691D-01  0.429885D-01  0.139318D+00
     30  0.372109D-01 -0.216832D-01  0.221964D+01 -0.638993D-01  0.418229D+01
     31  0.158164D-02  0.000000D+00  0.211950D-02 -0.212998D-01  0.448559D-01
     32  0.339643D-01 -0.216832D-01  0.221656D+01 -0.212998D-01  0.409513D+01
     33 -0.131328D-02  0.000000D+00  0.250893D+00  0.000000D+00  0.401087D+00
     34 -0.976198D-02  0.000000D+00  0.197856D+00  0.000000D+00  0.316264D+00
     35  0.000000D+00  0.000000D+00  0.329670D-01  0.000000D+00  0.535689D-01
     36  0.000000D+00  0.000000D+00  0.000000D+00  0.000000D+00  0.000000D+00
               31            32            33            34            35 
     31  0.183978D+00
     32 -0.101000D+00  0.429353D+01
     33 -0.303853D-02  0.402695D+00  0.352712D+00
     34 -0.151927D-02  0.317068D+00  0.247679D+00  0.344270D+00
     35  0.000000D+00  0.535689D-01  0.205125D-01  0.188899D-01  0.626984D-01
     36  0.000000D+00  0.000000D+00  0.000000D+00  0.000000D+00  0.000000D+00
               36 
     36  0.880766D-02
 Leave Link  716 at Tue May 20 11:43:47 2025, MaxMem=  3758096384 cpu:               0.2 elap:               0.0
 (Enter /gpfs/fs1/soft/bebop/software/custom-built/gaussian/16-c.02/g16/l103.exe)

 GradGradGradGradGradGradGradGradGradGradGradGradGradGradGradGradGradGrad
 Berny optimization.
 Search for a local minimum.
 Step number   1 out of a maximum of   46
 All quantities printed in internal units (Hartrees-Bohrs-Radians)
 Second derivative matrix not updated -- first step.
 ITU=  0
     Eigenvalues ---    0.00881   0.03492   0.05351   0.05588   0.08350
     Eigenvalues ---    0.08951   0.13123   0.16000   0.18413   0.19727
     Eigenvalues ---    0.21647   0.25000   0.25543   0.28300   0.29877
     Eigenvalues ---    0.30151   0.34072   0.34219   0.34252   0.34411
     Eigenvalues ---    0.34790   0.35115   0.38081   0.40803   0.41858
     Eigenvalues ---    0.46766   0.47683   0.50289   0.50996   0.52404
[...]
 Alpha virt. eigenvalues --    2.18051   2.24695   2.26865   2.27263   2.30170
 Alpha virt. eigenvalues --    2.39265   2.42906   2.46820   2.48249   2.52007
 Alpha virt. eigenvalues --    2.52942   2.55567   2.60420   2.64780   2.71749
 Alpha virt. eigenvalues --    2.78546   2.84309   2.86244   2.86951   2.92874
 Alpha virt. eigenvalues --    3.02077   3.03232   3.06579   3.14553   3.18017
 Alpha virt. eigenvalues --    3.23404   3.36268   3.43693   3.56859   3.65395
 Alpha virt. eigenvalues --    3.96544
  Beta  occ. eigenvalues --  -19.33550 -19.31843 -10.35794 -10.30554 -10.29609
  Beta  occ. eigenvalues --  -10.29117 -10.28441  -1.24105  -1.02707  -0.91300
  Beta  occ. eigenvalues --   -0.81876  -0.75122  -0.66767  -0.64900  -0.61485
  Beta  occ. eigenvalues --   -0.58993  -0.56960  -0.53828  -0.50012  -0.47768
  Beta  occ. eigenvalues --   -0.45930  -0.44639  -0.43607  -0.38137  -0.36235
  Beta  occ. eigenvalues --   -0.31047
  Beta virt. eigenvalues --    0.01641   0.04427   0.12489   0.14589   0.16602
  Beta virt. eigenvalues --    0.17295   0.18456   0.20779   0.22527   0.22887
  Beta virt. eigenvalues --    0.25048   0.29666   0.35817   0.39215   0.44731
  Beta virt. eigenvalues --    0.46234   0.48433   0.52416   0.52961   0.55614
  Beta virt. eigenvalues --    0.57615   0.59339   0.61409   0.63673   0.65680
  Beta virt. eigenvalues --    0.67070   0.68376   0.72281   0.72690   0.73999
  Beta virt. eigenvalues --    0.74444   0.75678   0.77025   0.79732   0.80603
  Beta virt. eigenvalues --    0.84191   0.85467   0.86944   0.91102   0.91222
  Beta virt. eigenvalues --    0.98300   1.01930   1.04028   1.08449   1.12142
  Beta virt. eigenvalues --    1.19108   1.19643   1.22493   1.30235   1.35090
  Beta virt. eigenvalues --    1.36708   1.41730   1.45797   1.48533   1.51460
  Beta virt. eigenvalues --    1.60142   1.67382   1.69863   1.71484   1.71908
  Beta virt. eigenvalues --    1.74186   1.77137   1.78818   1.83052   1.83928
  Beta virt. eigenvalues --    1.86950   1.88749   1.91854   1.94503   1.96928
  Beta virt. eigenvalues --    2.01177   2.04239   2.05970   2.10974   2.12487
  Beta virt. eigenvalues --    2.17751   2.18585   2.25961   2.27345   2.27737
  Beta virt. eigenvalues --    2.31598   2.40171   2.43858   2.47644   2.48654
  Beta virt. eigenvalues --    2.52482   2.53207   2.56425   2.61501   2.65494
  Beta virt. eigenvalues --    2.72101   2.79046   2.84669   2.86679   2.87522
  Beta virt. eigenvalues --    2.93770   3.02108   3.03804   3.07010   3.14962
  Beta virt. eigenvalues --    3.18234   3.23847   3.36523   3.43948   3.57214
  Beta virt. eigenvalues --    3.65454   3.96648
          Condensed to atoms (all electrons):
               1          2          3          4          5          6
     1  C    5.030765   0.345978   0.405045  -0.053401  -0.047939  -0.082610
     2  C    0.345978   4.983247  -0.046512   0.488494   0.426243  -0.058512
     3  H    0.405045  -0.046512   0.629189   0.005944  -0.002393  -0.000212
     4  C   -0.053401   0.488494   0.005944   4.818052  -0.048978   0.491646
     5  H   -0.047939   0.426243  -0.002393  -0.048978   0.632937   0.009754
     6  C   -0.082610  -0.058512  -0.000212   0.491646   0.009754   5.082402
     7  H    0.009040  -0.045809  -0.000304   0.420091  -0.007547  -0.048318
     8  H   -0.009697  -0.022872   0.000553   0.000141  -0.000318   0.370997
     9  H    0.003679   0.009612  -0.000030  -0.023394  -0.000171   0.378142
    10  C    0.522151  -0.051079  -0.025142  -0.036458   0.008439  -0.027203
    11  H   -0.040469   0.007913  -0.011092   0.003452  -0.000254  -0.006214
    12  O   -0.045891  -0.002415   0.002786  -0.005495   0.000010  -0.039584
    13  O    0.002767  -0.000606  -0.000058   0.000445   0.000012   0.004341
    14  H   -0.000290   0.000050  -0.000000   0.000030  -0.000002  -0.000712
               7          8          9         10         11         12
     1  C    0.009040  -0.009697   0.003679   0.522151  -0.040469  -0.045891
     2  C   -0.045809  -0.022872   0.009612  -0.051079   0.007913  -0.002415
     3  H   -0.000304   0.000553  -0.000030  -0.025142  -0.011092   0.002786
     4  C    0.420091   0.000141  -0.023394  -0.036458   0.003452  -0.005495
     5  H   -0.007547  -0.000318  -0.000171   0.008439  -0.000254   0.000010
     6  C   -0.048318   0.370997   0.378142  -0.027203  -0.006214  -0.039584
     7  H    0.638903   0.004591  -0.009914   0.002958  -0.000007  -0.000420
     8  H    0.004591   0.599633  -0.035388   0.014642   0.005556  -0.008708
     9  H   -0.009914  -0.035388   0.639822   0.000328  -0.000200   0.000166
    10  C    0.002958   0.014642   0.000328   4.876101   0.394343   0.279749
    11  H   -0.000007   0.005556  -0.000200   0.394343   0.629830  -0.037339
    12  O   -0.000420  -0.008708   0.000166   0.279749  -0.037339   7.981615
    13  O    0.000010   0.000089  -0.000007  -0.052360   0.009152   0.099618
    14  H   -0.000003   0.000129  -0.000017   0.002296   0.002083  -0.017762
              13         14
     1  C    0.002767  -0.000290
     2  C   -0.000606   0.000050
     3  H   -0.000058  -0.000000
     4  C    0.000445   0.000030
     5  H    0.000012  -0.000002
     6  C    0.004341  -0.000712
     7  H    0.000010  -0.000003
     8  H    0.000089   0.000129
     9  H   -0.000007  -0.000017
    10  C   -0.052360   0.002296
    11  H    0.009152   0.002083
    12  O    0.099618  -0.017762
    13  O    7.771799   0.312119
    14  H    0.312119   0.502751
          Atomic-Atomic Spin Densities.
               1          2          3          4          5          6
     1  C   -0.070294  -0.061115   0.005602   0.012442   0.000175  -0.029317
     2  C   -0.061115   0.620945  -0.007528   0.001214   0.006240  -0.023081
     3  H    0.005602  -0.007528   0.017097   0.000646  -0.000074  -0.002188
     4  C    0.012442   0.001214   0.000646  -0.273238  -0.000049  -0.027497
     5  H    0.000175   0.006240  -0.000074  -0.000049  -0.030300  -0.000329
     6  C   -0.029317  -0.023081  -0.002188  -0.027497  -0.000329   0.916252
     7  H   -0.000431  -0.004171  -0.000048   0.003599   0.000082  -0.002307
     8  H    0.006083  -0.000650   0.000356   0.001435   0.000007  -0.009629
     9  H    0.000222  -0.000425   0.000026  -0.000164   0.000013  -0.002185
    10  C    0.045250  -0.014820  -0.003840   0.002417  -0.000484  -0.074074
    11  H   -0.001516   0.000076   0.000319  -0.000171   0.000013   0.000361
    12  O    0.001430   0.003827   0.000385   0.004587  -0.000005  -0.041226
    13  O    0.000102  -0.000127  -0.000009  -0.000176  -0.000001   0.002255
    14  H   -0.000032  -0.000025  -0.000004   0.000005   0.000000   0.000510
               7          8          9         10         11         12
     1  C   -0.000431   0.006083   0.000222   0.045250  -0.001516   0.001430
     2  C   -0.004171  -0.000650  -0.000425  -0.014820   0.000076   0.003827
     3  H   -0.000048   0.000356   0.000026  -0.003840   0.000319   0.000385
     4  C    0.003599   0.001435  -0.000164   0.002417  -0.000171   0.004587
     5  H    0.000082   0.000007   0.000013  -0.000484   0.000013  -0.000005
     6  C   -0.002307  -0.009629  -0.002185  -0.074074   0.000361  -0.041226
     7  H    0.022432  -0.000527  -0.000616  -0.000526   0.000001  -0.000173
     8  H   -0.000527  -0.032772   0.003830   0.004589  -0.000063   0.002088
     9  H   -0.000616   0.003830  -0.031982   0.002334   0.000013   0.000373
    10  C   -0.000526   0.004589   0.002334   0.236822   0.002374  -0.013834
    11  H    0.000001  -0.000063   0.000013   0.002374  -0.012226   0.000142
    12  O   -0.000173   0.002088   0.000373  -0.013834   0.000142   0.046305
    13  O    0.000004  -0.000114  -0.000023  -0.000973   0.000448  -0.004357
    14  H    0.000002  -0.000023  -0.000028   0.000426  -0.000058  -0.000791
              13         14
     1  C    0.000102  -0.000032
     2  C   -0.000127  -0.000025
     3  H   -0.000009  -0.000004
     4  C   -0.000176   0.000005
     5  H   -0.000001   0.000000
     6  C    0.002255   0.000510
     7  H    0.000004   0.000002
     8  H   -0.000114  -0.000023
     9  H   -0.000023  -0.000028
    10  C   -0.000973   0.000426
    11  H    0.000448  -0.000058
    12  O   -0.004357  -0.000791
    13  O    0.017969   0.000137
    14  H    0.000137  -0.000276
 Mulliken charges and spin densities:
               1          2
     1  C   -0.039128  -0.091399
     2  C   -0.033732   0.520360
     3  H    0.042224   0.010740
     4  C   -0.060567  -0.274950
     5  H    0.030207  -0.024711
     6  C   -0.073919   0.707542
     7  H    0.036728   0.017321
     8  H    0.080654  -0.025390
     9  H    0.037374  -0.028614
    10  C    0.091236   0.185662
    11  H    0.043246  -0.010288
    12  O   -0.206330  -0.001248
    13  O   -0.147321   0.015135
    14  H    0.199328  -0.000157
 Sum of Mulliken charges =  -0.00000   1.00000
 Mulliken charges and spin densities with hydrogens summed into heavy atoms:
               1          2
     1  C    0.003096  -0.080660
     2  C   -0.003525   0.495649
     4  C   -0.023839  -0.257629
     6  C    0.044109   0.653538
    10  C    0.134482   0.175374
    12  O   -0.206330  -0.001248
    13  O    0.052006   0.014977
 Electronic spatial extent (au):  <R**2>=            734.9481
 Charge=             -0.0000 electrons
 Dipole moment (field-independent basis, Debye):
    X=             -0.6057    Y=              0.9182    Z=              1.0804  Tot=              1.5419
 Quadrupole moment (field-independent basis, Debye-Ang):
   XX=            -37.3494   YY=            -38.9640   ZZ=            -41.5315
   XY=             -4.7173   XZ=             -3.1678   YZ=             -1.6442
 Traceless Quadrupole moment (field-independent basis, Debye-Ang):
   XX=              1.9322   YY=              0.3177   ZZ=             -2.2499
   XY=             -4.7173   XZ=             -3.1678   YZ=             -1.6442
 Octapole moment (field-independent basis, Debye-Ang**2):
  XXX=            -35.3611  YYY=              3.5043  ZZZ=             -0.4915  XYY=             -6.9432
  XXY=             12.7068  XXZ=             -5.8780  XZZ=             -5.4728  YZZ=             -0.0619
  YYZ=             -0.1495  XYZ=              0.6259
 Hexadecapole moment (field-independent basis, Debye-Ang**3):
 XXXX=           -508.2136 YYYY=           -242.7746 ZZZZ=           -111.9326 XXXY=            -48.6880
 XXXZ=            -10.5225 YYYX=            -11.3526 YYYZ=             -8.4160 ZZZX=              1.1522
 ZZZY=             -3.0102 XXYY=           -121.9625 XXZZ=           -112.5089 YYZZ=            -59.3079
 XXYZ=             -6.2780 YYXZ=             -1.7432 ZZXY=             -1.9043
 N-N= 2.964921213890D+02 E-N=-1.397698469916D+03  KE= 3.417466439665D+02
                          Isotropic Fermi Contact Couplings
        Atom                 a.u.       MegaHertz       Gauss      10(-4) cm-1
     1  C(13)             -0.03503     -39.38079     -14.05205     -13.13602
     2  C(13)              0.09317     104.74235      37.37468      34.93829
     3  H(1)               0.00478      21.35208       7.61895       7.12229
     4  C(13)             -0.07570     -85.09752     -30.36491     -28.38548
     5  H(1)              -0.00765     -34.17848     -12.19573     -11.40071
     6  C(13)              0.19014     213.74810      76.27064      71.29869
     7  H(1)               0.00678      30.32311      10.82004      10.11470
     8  H(1)              -0.00979     -43.77504     -15.62002     -14.60178
     9  H(1)              -0.00776     -34.68574     -12.37673     -11.56992
    10  C(13)              0.03679      41.35815      14.75762      13.79559
    11  H(1)              -0.00322     -14.39812      -5.13761      -4.80269
    12  O(17)              0.15305     -92.77573     -33.10469     -30.94665
    13  O(17)             -0.00262       1.58973       0.56725       0.53028
    14  H(1)              -0.00018      -0.78479      -0.28003      -0.26178
 --------------------------------------------------------
       Center         ----  Spin Dipole Couplings  ----
                      3XX-RR        3YY-RR        3ZZ-RR
 --------------------------------------------------------
     1   Atom        0.007393      0.008052     -0.015446
     2   Atom        0.007836     -0.252646      0.244810
     3   Atom       -0.001002      0.006549     -0.005547
     4   Atom       -0.068009      0.105549     -0.037541
     5   Atom        0.013510     -0.018604      0.005094
     6   Atom        0.476600     -0.240469     -0.236131
     7   Atom       -0.002451      0.004235     -0.001784
     8   Atom       -0.020777     -0.024716      0.045492
     9   Atom       -0.008789      0.051960     -0.043170
    10   Atom       -0.066238      0.046569      0.019669
    11   Atom        0.000711     -0.006254      0.005543
    12   Atom       -0.025852     -0.003933      0.029785
    13   Atom        0.047434     -0.015700     -0.031734
    14   Atom        0.005003     -0.000132     -0.004871
 --------------------------------------------------------
                        XY            XZ            YZ
 --------------------------------------------------------
     1   Atom       -0.021002     -0.035107     -0.020050
     2   Atom       -0.064547      0.363117     -0.074525
     3   Atom       -0.001872     -0.003628     -0.001255
     4   Atom       -0.008422     -0.162501      0.015658
     5   Atom       -0.027849     -0.010511      0.015021
     6   Atom        0.321670      0.341213      0.122624
     7   Atom       -0.005452     -0.006347      0.006854
     8   Atom        0.011969      0.008957     -0.031951
     9   Atom       -0.008474      0.016556      0.000087
    10   Atom        0.095210      0.079414      0.150387
    11   Atom        0.012578     -0.012590     -0.002181
    12   Atom       -0.020648     -0.001507      0.041907
    13   Atom        0.043883      0.017249      0.005478
    14   Atom       -0.002680      0.001581      0.000320
 --------------------------------------------------------


 ---------------------------------------------------------------------------------
              Anisotropic Spin Dipole Couplings in Principal Axis System
 ---------------------------------------------------------------------------------

       Atom             a.u.   MegaHertz   Gauss  10(-4) cm-1        Axes

              Baa    -0.0541    -7.264    -2.592    -2.423  0.5537  0.4190  0.7196
     1 C(13)  Bbb     0.0195     2.619     0.935     0.874  0.0321  0.8528 -0.5212
              Bcc     0.0346     4.645     1.657     1.549  0.8321 -0.3117 -0.4587
 
              Baa    -0.2700   -36.236   -12.930   -12.087  0.4717  0.8567 -0.2087
     2 C(13)  Bbb    -0.2507   -33.645   -12.005   -11.223  0.6609 -0.5002 -0.5595
              Bcc     0.5208    69.881    24.935    23.310  0.5837 -0.1260  0.8021
 
              Baa    -0.0078    -4.181    -1.492    -1.395  0.4937  0.1391  0.8584
     3 H(1)   Bbb     0.0008     0.445     0.159     0.149  0.8434  0.1640 -0.5117
              Bcc     0.0070     3.736     1.333     1.246 -0.2120  0.9766 -0.0364
 
              Baa    -0.2160   -28.991   -10.345    -9.670  0.7388 -0.0135  0.6738
     4 C(13)  Bbb     0.0906    12.159     4.339     4.056  0.4497  0.7545 -0.4780
              Bcc     0.1254    16.832     6.006     5.615 -0.5019  0.6562  0.5635
 
              Baa    -0.0363   -19.371    -6.912    -6.462  0.4447  0.8723 -0.2036
     5 H(1)   Bbb    -0.0019    -0.990    -0.353    -0.330  0.4981 -0.0519  0.8656
              Bcc     0.0382    20.361     7.265     6.792  0.7444 -0.4863 -0.4575
 
              Baa    -0.3756   -50.395   -17.982   -16.810 -0.4616  0.3655  0.8083
     6 C(13)  Bbb    -0.3595   -48.243   -17.214   -16.092 -0.1411  0.8693 -0.4737
              Bcc     0.7351    98.638    35.197    32.902  0.8758  0.3327  0.3497
 
              Baa    -0.0086    -4.566    -1.629    -1.523  0.6671 -0.1104  0.7367
     7 H(1)   Bbb    -0.0044    -2.356    -0.841    -0.786  0.5796  0.6982 -0.4202
              Bcc     0.0130     6.923     2.470     2.309 -0.4680  0.7074  0.5297
 
              Baa    -0.0455   -24.282    -8.664    -8.100 -0.5053  0.7975  0.3297
     8 H(1)   Bbb    -0.0126    -6.700    -2.391    -2.235  0.8613  0.4894  0.1364
              Bcc     0.0581    30.982    11.055    10.335  0.0526 -0.3530  0.9342
 
              Baa    -0.0500   -26.652    -9.510    -8.890 -0.3787 -0.0323  0.9250
     9 H(1)   Bbb    -0.0032    -1.717    -0.613    -0.573  0.9146  0.1399  0.3793
              Bcc     0.0532    28.369    10.123     9.463 -0.1416  0.9896 -0.0234
 
              Baa    -0.1228   -16.473    -5.878    -5.495 -0.6326  0.6819 -0.3672
    10 C(13)  Bbb    -0.1123   -15.066    -5.376    -5.026 -0.6747 -0.2523  0.6937
              Bcc     0.2350    31.540    11.254    10.520  0.3803  0.6866  0.6197
 
              Baa    -0.0177    -9.435    -3.367    -3.147 -0.6696  0.6798 -0.2992
    11 H(1)   Bbb    -0.0022    -1.179    -0.421    -0.393  0.3249  0.6303  0.7051
              Bcc     0.0199    10.614     3.787     3.540  0.6679  0.3749 -0.6430
 
              Baa    -0.0463     3.349     1.195     1.117  0.6511  0.6701 -0.3563
    12 O(17)  Bbb    -0.0138     0.998     0.356     0.333  0.7435 -0.4690  0.4767
              Bcc     0.0601    -4.347    -1.551    -1.450 -0.1523  0.5753  0.8036
 
              Baa    -0.0399     2.887     1.030     0.963 -0.4664  0.7344  0.4930
    13 O(17)  Bbb    -0.0331     2.393     0.854     0.798  0.0961 -0.5119  0.8536
              Bcc     0.0730    -5.280    -1.884    -1.761  0.8793  0.4456  0.1682
 
              Baa    -0.0052    -2.794    -0.997    -0.932 -0.1916 -0.1612  0.9681
    14 H(1)   Bbb    -0.0011    -0.570    -0.204    -0.190  0.3453  0.9123  0.2202
              Bcc     0.0063     3.365     1.201     1.122  0.9187 -0.3765  0.1191
 

 ---------------------------------------------------------------------------------

 No NMR shielding tensors so no spin-rotation constants.
 Leave Link  601 at Tue May 20 11:46:16 2025, MaxMem=  3758096384 cpu:              16.5 elap:               3.3
 (Enter /gpfs/fs1/soft/bebop/software/custom-built/gaussian/16-c.02/g16/l9999.exe)
 Unable to Open any file for archive entry.
 1\1\GINC-CSED-0031\POpt\UwB97XD\def2SVP\C5H7O2(2)\COPAN\20-May-2025\1\
 \#P wb97xd/def2svp # SCF=(xqc) # POpt=() # int=ultrafine\\comment:\\0,
 2\C\C,1,R1\H,1,R2,2,A2\C,2,R3,1,A3,3,D3,0\H,2,R4,1,A4,4,D4,0\C,4,R5,2,
 A5,1,D5,0\H,4,R6,2,A6,6,D6,0\H,6,R7,4,A7,2,D7,0\H,6,R8,4,A8,8,D8,0\C,6
 ,R9,4,A9,8,D9,0\H,10,R10,6,A10,4,D10,0\O,10,R11,6,A11,11,D11,0\O,12,R1
 2,10,A12,1,D12,0\H,13,R13,12,A13,10,D13,0\\R1=1.431566\R2=1.09348315\R
 3=1.38982832\R4=1.09016135\R5=1.39725476\R6=1.09501463\R7=1.08768752\R
 8=1.09521144\R10=1.09667945\R11=1.37093635\R12=1.43189766\R13=0.967034
 93\A2=123.41911481\A3=110.70719712\A4=124.93897295\A5=119.08700648\A6=
 121.32461203\A7=123.97977601\A8=118.21110607\A9=89.32438644\A10=127.01
 12463\A11=74.283666\A12=106.21014766\A13=99.61045102\D3=223.2140964\D4
 =177.04133808\D5=8.63935786\D6=183.3411984\D7=35.70361421\D8=157.85648
 374\D9=300.45569847\D10=158.33886208\D11=103.75458433\D12=130.93882585
 \D13=136.87123448\R9=2.24\\Version=ES64L-G16RevC.01\State=2-A\HF=-344.
 5725\S2=0.789703\S2-1=0.\S2A=0.750645\RMSD=4.770e-09\RMSF=1.416e-02\Di
 pole=-0.2803201,-0.4842288,-0.2343936\Quadrupole=3.358981,-3.7906144,0
 .4316334,1.906379,1.2827119,1.8978385\PG=C01 [X(C5H7O2)]\\@
 The archive entry for this job was punched.


 Standing in the middle of the road is very dangerous;
 you get knocked down by the traffic from both sides.
                                -- Margaret Thatcher
 Job cpu time:       0 days  0 hours 14 minutes  3.9 seconds.
 Elapsed time:       0 days  0 hours  2 minutes 43.8 seconds.
 File lengths (MBytes):  RWF=     15 Int=      0 D2E=      0 Chk=      3 Scr=      1
 Normal termination of Gaussian 16 at Tue May 20 11:46:16 2025.
