 Entering Gaussian System, Link 0=g16
 Input=run.inp
 Output=run.out
 Initial command:
 /gpfs/fs1/soft/bebop/software/custom-built/gaussian/16-c.02/g16/l1.exe "/scratch/Gau-2156819.inp" -scrdir="/scratch/"
 Default CPUs for threads: 0-35
 Default is to use a total of  36 processors:
                               36 via shared-memory
                                1 via Linda
 Entering Link 1 = /gpfs/fs1/soft/bebop/software/custom-built/gaussian/16-c.02/g16/l1.exe PID=   2156820.
  
 Copyright (c) 1988-2019, Gaussian, Inc.  All Rights Reserved.
  
 This is part of the Gaussian(R) 16 program.  It is based on
 the Gaussian(R) 09 system (copyright 2009, Gaussian, Inc.),
 the Gaussian(R) 03 system (copyright 2003, Gaussian, Inc.),
 the Gaussian(R) 98 system (copyright 1998, Gaussian, Inc.),
 the Gaussian(R) 94 system (copyright 1995, Gaussian, Inc.),
 the Gaussian 92(TM) system (copyright 1992, Gaussian, Inc.),
 the Gaussian 90(TM) system (copyright 1990, Gaussian, Inc.),
 the Gaussian 88(TM) system (copyright 1988, Gaussian, Inc.),
 the Gaussian 86(TM) system (copyright 1986, Carnegie Mellon
 University), and the Gaussian 82(TM) system (copyright 1983,
 Carnegie Mellon University). Gaussian is a federally registered
 trademark of Gaussian, Inc.
  
 This software contains proprietary and confidential information,
 including trade secrets, belonging to Gaussian, Inc.
  
 This software is provided under written license and may be
 used, copied, transmitted, or stored only in accord with that
 written license.
  
 The following legend is applicable only to US Government
 contracts under FAR:
  
                    RESTRICTED RIGHTS LEGEND
  
 Use, reproduction and disclosure by the US Government is
 subject to restrictions as set forth in subparagraphs (a)
 and (c) of the Commercial Computer Software - Restricted
 Rights clause in FAR 52.227-19.
  
 Gaussian, Inc.
 340 Quinnipiac St., Bldg. 40, Wallingford CT 06492
  
  
 ---------------------------------------------------------------
 Warning -- This program may not be used in any manner that
 competes with the business of Gaussian, Inc. or will provide
 assistance to any competitor of Gaussian, Inc.  The licensee
 of this program is prohibited from giving any competitor of
 Gaussian, Inc. access to this program.  By using this program,
 the user acknowledges that Gaussian, Inc. is engaged in the
 business of creating and licensing software in the field of
 computational chemistry and represents and warrants to the
 licensee that it is not a competitor of Gaussian, Inc. and that
 it will not use this program in any manner prohibited above.
 ---------------------------------------------------------------
  

 Cite this work as:
 Gaussian 16, Revision C.01,
 M. J. Frisch, G. W. Trucks, H. B. Schlegel, G. E. Scuseria, 
 M. A. Robb, J. R. Cheeseman, G. Scalmani, V. Barone, 
 G. A. Petersson, H. Nakatsuji, X. Li, M. Caricato, A. V. Marenich, 
 J. Bloino, B. G. Janesko, R. Gomperts, B. Mennucci, H. P. Hratchian, 
 J. V. Ortiz, A. F. Izmaylov, J. L. Sonnenberg, D. Williams-Young, 
 F. Ding, F. Lipparini, F. Egidi, J. Goings, B. Peng, A. Petrone, 
 T. Henderson, D. Ranasinghe, V. G. Zakrzewski, J. Gao, N. Rega, 
 G. Zheng, W. Liang, M. Hada, M. Ehara, K. Toyota, R. Fukuda, 
 J. Hasegawa, M. Ishida, T. Nakajima, Y. Honda, O. Kitao, H. Nakai, 
 T. Vreven, K. Throssell, J. A. Montgomery, Jr., J. E. Peralta, 
 F. Ogliaro, M. J. Bearpark, J. J. Heyd, E. N. Brothers, K. N. Kudin, 
 V. N. Staroverov, T. A. Keith, R. Kobayashi, J. Normand, 
 K. Raghavachari, A. P. Rendell, J. C. Burant, S. S. Iyengar, 
 J. Tomasi, M. Cossi, J. M. Millam, M. Klene, C. Adamo, R. Cammi, 
 J. W. Ochterski, R. L. Martin, K. Morokuma, O. Farkas, 
 J. B. Foresman, and D. J. Fox, Gaussian, Inc., Wallingford CT, 2019.
 
 ******************************************
 Gaussian 16:  ES64L-G16RevC.01  3-Jul-2019
                20-May-2025 
 ******************************************
 %mem=28GB
 %NProcShared=6
 Will use up to    6 processors via shared memory.
 -------------------------------------------------------
 #P wb97xd/def2svp # SCF=(xqc) # POpt=() # int=ultrafine
 -------------------------------------------------------
 1/10=7,26=4,38=1/1,3;
 2/12=2,17=6,18=5,29=3,40=1/2;
 3/5=43,7=101,11=2,25=1,30=1,71=1,74=-58,75=-5/1,2,3;
 4//1;
 5/5=2,8=3,13=1,38=5/2,8;
 6/7=2,8=2,9=2,10=2,28=1/1;
 7/29=1/1,2,3,16;
 1/10=7,26=4/3(2);
 2/29=3/2;
 99//99;
 2/29=3/2;
 3/5=43,7=101,11=2,25=1,30=1,71=1,74=-58,75=-5/1,2,3;
 4/5=5,16=3,69=1/1;
 5/5=2,8=3,13=1,38=5/2,8;
 7//1,2,3,16;
 1/26=4/3(-5);
 2/29=3/2;
 6/7=2,8=2,9=2,10=2,19=2,28=1/1;
 99/9=1/99;
 Leave Link    1 at Tue May 20 11:00:19 2025, MaxMem=  3758096384 cpu:               0.2 elap:               0.0
 (Enter /gpfs/fs1/soft/bebop/software/custom-built/gaussian/16-c.02/g16/l101.exe)
 --------
 comment:
 --------
 Symbolic Z-matrix:
 Charge =  0 Multiplicity = 2
 C
 C                    1    R1
 H                    1    R2       2    A2
 C                    2    R3       1    A3       3    D3       0
 H                    2    R4       1    A4       4    D4       0
 C                    4    R5       2    A5       1    D5       0
 H                    4    R6       2    A6       6    D6       0
 H                    6    R7       4    A7       2    D7       0
 H                    6    R8       4    A8       8    D8       0
 C                    6    R9       4    A9       8    D9       0
 H                    10   R10      6    A10      4    D10      0
 O                    10   R11      6    A11      11   D11      0
 O                    12   R12      10   A12      1    D12      0
 H                    13   R13      12   A13      10   D13      0
       Variables:
  R1                    1.42078                  
  R2                    1.09348                  
  R3                    1.40344                  
  R4                    1.09074                  
  R5                    1.37791                  
  R6                    1.09461                  
  R7                    1.08603                  
  R8                    1.09481                  
  R10                   1.09503                  
  R11                   1.36195                  
  R12                   1.42649                  
  R13                   0.96707                  
  A2                  122.72571                  
  A3                  112.63018                  
  A4                  123.6289                   
  A5                  119.15538                  
  A6                  121.10221                  
  A7                  124.06285                  
  A8                  118.83963                  
  A9                   88.12296                  
  A10                 132.80929                  
  A11                  70.4126                   
  A12                 107.01781                  
  A13                  99.61493                  
  D3                  216.42235                  
  D4                  176.51093                  
  D5                   12.53873                  
  D6                  182.30218                  
  D7                   25.11233                  
  D8                  163.49794                  
  D9                  309.45124                  
  D10                 158.43305                  
  D11                 100.36023                  
  D12                 145.31248                  
  D13                 140.16116                  
       Constants:
  R9                    2.3                      
 
 ITRead=  0  0  0  0  0  0  0  0  0  0  0  0  0  0
 MicOpt= -1 -1 -1 -1 -1 -1 -1 -1 -1 -1 -1 -1 -1 -1
 NAtoms=     14 NQM=       14 NQMF=       0 NMMI=      0 NMMIF=      0
                NMic=       0 NMicF=      0.
                    Isotopes and Nuclear Properties:
 (Nuclear quadrupole moments (NQMom) in fm**2, nuclear magnetic moments (NMagM)
  in nuclear magnetons)

  Atom         1           2           3           4           5           6           7           8           9          10
 IAtWgt=          12          12           1          12           1          12           1           1           1          12
 AtmWgt=  12.0000000  12.0000000   1.0078250  12.0000000   1.0078250  12.0000000   1.0078250   1.0078250   1.0078250  12.0000000
 NucSpn=           0           0           1           0           1           0           1           1           1           0
 AtZEff=  -0.0000000  -0.0000000  -0.0000000  -0.0000000  -0.0000000  -0.0000000  -0.0000000  -0.0000000  -0.0000000  -0.0000000
 NQMom=    0.0000000   0.0000000   0.0000000   0.0000000   0.0000000   0.0000000   0.0000000   0.0000000   0.0000000   0.0000000
 NMagM=    0.0000000   0.0000000   2.7928460   0.0000000   2.7928460   0.0000000   2.7928460   2.7928460   2.7928460   0.0000000
 AtZNuc=   6.0000000   6.0000000   1.0000000   6.0000000   1.0000000   6.0000000   1.0000000   1.0000000   1.0000000   6.0000000

  Atom        11          12          13          14
 IAtWgt=           1          16          16           1
 AtmWgt=   1.0078250  15.9949146  15.9949146   1.0078250
 NucSpn=           1           0           0           1
 AtZEff=  -0.0000000  -0.0000000  -0.0000000  -0.0000000
 NQMom=    0.0000000   0.0000000   0.0000000   0.0000000
 NMagM=    2.7928460   0.0000000   0.0000000   2.7928460
 AtZNuc=   1.0000000   8.0000000   8.0000000   1.0000000
 Leave Link  101 at Tue May 20 11:00:19 2025, MaxMem=  3758096384 cpu:               0.6 elap:               0.1
 (Enter /gpfs/fs1/soft/bebop/software/custom-built/gaussian/16-c.02/g16/l103.exe)

 GradGradGradGradGradGradGradGradGradGradGradGradGradGradGradGradGradGrad
 Berny optimization.
 Initialization pass.
                       ----------------------------
                       !    Initial Parameters    !
                       ! (Angstroms and Degrees)  !
 ----------------------                            ----------------------
 !      Name          Value   Derivative information (Atomic Units)     !
 ------------------------------------------------------------------------
 !       R1          1.4208   estimate D2E/DX2                          !
 !       R2          1.0935   estimate D2E/DX2                          !
 !       R3          1.4034   estimate D2E/DX2                          !
 !       R4          1.0907   estimate D2E/DX2                          !
 !       R5          1.3779   estimate D2E/DX2                          !
 !       R6          1.0946   estimate D2E/DX2                          !
 !       R7          1.086    estimate D2E/DX2                          !
 !       R8          1.0948   estimate D2E/DX2                          !
 !       R10         1.095    estimate D2E/DX2                          !
 !       R11         1.3619   estimate D2E/DX2                          !
 !       R12         1.4265   estimate D2E/DX2                          !
 !       R13         0.9671   estimate D2E/DX2                          !
 !       A2        122.7257   estimate D2E/DX2                          !
 !       A3        112.6302   estimate D2E/DX2                          !
 !       A4        123.6289   estimate D2E/DX2                          !
 !       A5        119.1554   estimate D2E/DX2                          !
 !       A6        121.1022   estimate D2E/DX2                          !
 !       A7        124.0628   estimate D2E/DX2                          !
 !       A8        118.8396   estimate D2E/DX2                          !
 !       A9         88.123    estimate D2E/DX2                          !
 !       A10       132.8093   estimate D2E/DX2                          !
 !       A11        70.4126   estimate D2E/DX2                          !
 !       A12       107.0178   estimate D2E/DX2                          !
 !       A13        99.6149   estimate D2E/DX2                          !
 !       D3        216.4223   estimate D2E/DX2                          !
 !       D4        176.5109   estimate D2E/DX2                          !
 !       D5         12.5387   estimate D2E/DX2                          !
 !       D6        182.3022   estimate D2E/DX2                          !
 !       D7         25.1123   estimate D2E/DX2                          !
 !       D8        163.4979   estimate D2E/DX2                          !
 !       D9        309.4512   estimate D2E/DX2                          !
 !       D10       158.4331   estimate D2E/DX2                          !
 !       D11       100.3602   estimate D2E/DX2                          !
 !       D12       145.3125   estimate D2E/DX2                          !
 !       D13       140.1612   estimate D2E/DX2                          !
 !       R9          2.3      Frozen                                    !
 ------------------------------------------------------------------------
 Trust Radius=3.00D-01 FncErr=1.00D-07 GrdErr=1.00D-06 EigMax=2.50D+02 EigMin=1.00D-04
 Number of steps in this run=     46 maximum allowed number of steps=    100.
 GradGradGradGradGradGradGradGradGradGradGradGradGradGradGradGradGradGrad

 Leave Link  103 at Tue May 20 11:00:19 2025, MaxMem=  3758096384 cpu:               0.1 elap:               0.0
 (Enter /gpfs/fs1/soft/bebop/software/custom-built/gaussian/16-c.02/g16/l202.exe)
 ---------------------------------------------------------------------------------------------------
                            Z-MATRIX (ANGSTROMS AND DEGREES)
   CD    Cent   Atom    N1       Length/X        N2       Alpha/Y        N3        Beta/Z          J
 ---------------------------------------------------------------------------------------------------
      1      1  C 
      2      2  C        1   1.420775(     1)
      3      3  H        1   1.093482(     2)      2  122.726(    14)
      4      4  C        2   1.403439(     3)      1  112.630(    15)      3  216.422(    26)      0
      5      5  H        2   1.090737(     4)      1  123.629(    16)      4  176.511(    27)      0
      6      6  C        4   1.377905(     5)      2  119.155(    17)      1   12.539(    28)      0
      7      7  H        4   1.094606(     6)      2  121.102(    18)      6  182.302(    29)      0
      8      8  H        6   1.086031(     7)      4  124.063(    19)      2   25.112(    30)      0
      9      9  H        6   1.094808(     8)      4  118.840(    20)      8  163.498(    31)      0
     10     10  C        6   2.300000(     9)      4   88.123(    21)      8  309.451(    32)      0
     11     11  H       10   1.095029(    10)      6  132.809(    22)      4  158.433(    33)      0
     12     12  O       10   1.361945(    11)      6   70.413(    23)     11  100.360(    34)      0
     13     13  O       12   1.426494(    12)     10  107.018(    24)      1  145.312(    35)      0
     14     14  H       13   0.967069(    13)     12   99.615(    25)     10  140.161(    36)      0
 ---------------------------------------------------------------------------------------------------
                         Z-Matrix orientation:                         
 ---------------------------------------------------------------------
 Center     Atomic      Atomic             Coordinates (Angstroms)
 Number     Number       Type             X           Y           Z
 ---------------------------------------------------------------------
      1          6           0        0.000000    0.000000    0.000000
      2          6           0        0.000000    0.000000    1.420775
      3          1           0        0.919912    0.000000   -0.591156
      4          6           0       -1.042347   -0.769112    1.960792
      5          1           0        0.762251    0.493750    2.024838
      6          6           0       -1.749498   -1.615555    1.134902
      7          1           0       -1.324326   -0.678833    3.014595
      8          1           0       -1.355118   -2.038157    0.215481
      9          1           0       -2.648331   -2.104389    1.524446
     10          6           0       -1.178274   -0.251421   -0.626587
     11          1           0       -1.126965   -0.414842   -1.708136
     12          8           0       -2.457858    0.011800   -0.241524
     13          8           0       -3.192787    0.327255   -1.422733
     14          1           0       -4.022084   -0.128623   -1.223572
 ---------------------------------------------------------------------
                    Distance matrix (angstroms):
                    1          2          3          4          5
     1  C    0.000000
     2  C    1.420775   0.000000
     3  H    1.093482   2.212262   0.000000
     4  C    2.350049   1.403439   3.309748   0.000000
     5  H    2.219185   1.090737   2.666846   2.203520   0.000000
     6  C    2.637947   2.398434   3.565816   1.377905   3.398534
     7  H    3.361910   2.180577   4.301030   1.094606   2.590052
     8  H    2.457002   2.728216   3.159194   2.180461   3.763984
     9  H    3.710262   3.384207   4.651514   2.133670   4.316571
    10  C    1.357996   2.375549   2.113493   2.642160   3.369120
    11  H    2.088031   3.351452   2.368426   3.686964   4.281328
    12  O    2.469725   2.967229   3.395837   2.731976   3.967086
    13  O    3.510720   4.287951   4.208671   4.156279   5.249361
    14  H    4.206047   4.815213   4.983956   4.407860   5.816302
                    6          7          8          9         10
     6  C    0.000000
     7  H    2.142771   0.000000
     8  H    1.086031   3.111873   0.000000
     9  H    1.094808   2.450662   1.841243   0.000000
    10  C    2.300000   3.669089   1.983123   3.197108   0.000000
    11  H    3.148353   4.734219   2.527352   3.952052   1.095029
    12  O    2.246020   3.516274   2.372175   2.762822   1.361945
    13  O    3.521233   4.918662   3.414080   3.859428   2.242092
    14  H    3.596944   5.053978   3.581885   3.652732   2.908389
                   11         12         13         14
    11  H    0.000000
    12  O    2.025895   0.000000
    13  O    2.213546   1.426494   0.000000
    14  H    2.949311   1.852279   0.967069   0.000000
 Stoichiometry    C5H7O2(2)
 Framework group  C1[X(C5H7O2)]
 Deg. of freedom    36
 Full point group                 C1      NOp   1
 Largest Abelian subgroup         C1      NOp   1
 Largest concise Abelian subgroup C1      NOp   1
                         Standard orientation:                         
 ---------------------------------------------------------------------
 Center     Atomic      Atomic             Coordinates (Angstroms)
 Number     Number       Type             X           Y           Z
 ---------------------------------------------------------------------
      1          6           0        0.749429   -1.315036    0.206887
      2          6           0        1.773301   -0.560390   -0.426199
      3          1           0        0.941977   -2.265653    0.711819
      4          6           0        1.591493    0.823755   -0.282225
      5          1           0        2.637757   -1.008413   -0.917828
      6          6           0        0.663805    1.288225    0.624575
      7          1           0        2.146052    1.534495   -0.903090
      8          1           0        0.337804    0.733521    1.499497
      9          1           0        0.422715    2.356122    0.633394
     10          6           0       -0.451932   -0.709525    0.391925
     11          1           0       -1.169237   -1.239615    1.027194
     12          8           0       -1.079312    0.251869   -0.340885
     13          8           0       -2.478005   -0.021125   -0.277488
     14          1           0       -2.815103    0.881416   -0.193785
 ---------------------------------------------------------------------
 Rotational constants (GHZ):           5.2763401           2.0988864           1.6939258
 Leave Link  202 at Tue May 20 11:00:19 2025, MaxMem=  3758096384 cpu:               0.1 elap:               0.0
 (Enter /gpfs/fs1/soft/bebop/software/custom-built/gaussian/16-c.02/g16/l301.exe)
 Standard basis: def2SVP (5D, 7F)
 Ernie: Thresh=  0.10000D-02 Tol=  0.10000D-05 Strict=F.
 There are   140 symmetry adapted cartesian basis functions of A   symmetry.
 There are   133 symmetry adapted basis functions of A   symmetry.
   133 basis functions,   224 primitive gaussians,   140 cartesian basis functions
    27 alpha electrons       26 beta electrons
       nuclear repulsion energy       297.0616085769 Hartrees.
 IExCor= 4639 DFT=T Ex+Corr=wB97XD ExCW=0 ScaHFX=  1.000000
 ScaDFX=  1.000000  1.000000  1.000000  1.000000 ScalE2=  1.000000  1.000000
 IRadAn=      5 IRanWt=     -1 IRanGd=            0 ICorTp=0 IEmpDi=121
 HFx  wShort=  0.000000 wLong=  0.200000 cFull=  0.222036 cShort=  0.000000 cLong=  0.777964
 DFx  wShort=  0.000000 wLong=  0.200000 cFull=  0.000000 cShort=  0.000000 cLong=  1.000000
 NAtoms=   14 NActive=   14 NUniq=   14 SFac= 1.00D+00 NAtFMM=   60 NAOKFM=F Big=F
 Integral buffers will be    131072 words long.
 Raffenetti 2 integral format.
 Two-electron integral symmetry is turned on.
 R6Disp:  Grimme-D2 Dispersion energy=       -0.0056989309 Hartrees.
 Nuclear repulsion after empirical dispersion term =      297.0559096459 Hartrees.
 Leave Link  301 at Tue May 20 11:00:19 2025, MaxMem=  3758096384 cpu:               0.3 elap:               0.1
 (Enter /gpfs/fs1/soft/bebop/software/custom-built/gaussian/16-c.02/g16/l302.exe)
 NPDir=0 NMtPBC=     1 NCelOv=     1 NCel=       1 NClECP=     1 NCelD=      1
         NCelK=      1 NCelE2=     1 NClLst=     1 CellRange=     0.0.
 One-electron integrals computed using PRISM.
 One-electron integral symmetry used in STVInt
   1 Symmetry operations used in ECPInt.
 ECPInt:  NShTT=    2016 NPrTT=    7252 LenC2=    2008 LenP2D=    5973.
 LDataN:  DoStor=T MaxTD1= 4 Len=   56
 NBasis=   133 RedAO= T EigKep=  1.01D-03  NBF=   133
 NBsUse=   133 1.00D-06 EigRej= -1.00D+00 NBFU=   133
 Precomputing XC quadrature grid using
 IXCGrd= 4 IRadAn=           5 IRanWt=          -1 IRanGd=           0 AccXCQ= 0.00D+00.
 Generated NRdTot=       0 NPtTot=           0 NUsed=           0 NTot=          32
 NSgBfM=   140   140   140   140   140 MxSgAt=    14 MxSgA2=    14.
 Leave Link  302 at Tue May 20 11:00:19 2025, MaxMem=  3758096384 cpu:               0.8 elap:               0.2
 (Enter /gpfs/fs1/soft/bebop/software/custom-built/gaussian/16-c.02/g16/l303.exe)
 DipDrv:  MaxL=1.
 Leave Link  303 at Tue May 20 11:00:20 2025, MaxMem=  3758096384 cpu:               0.1 elap:               0.0
 (Enter /gpfs/fs1/soft/bebop/software/custom-built/gaussian/16-c.02/g16/l401.exe)
 ExpMin= 1.22D-01 ExpMax= 2.27D+03 ExpMxC= 3.41D+02 IAcc=3 IRadAn=         5 AccDes= 0.00D+00
 Harris functional with IExCor= 4639 and IRadAn=       5 diagonalized for initial guess.
 HarFok:  IExCor= 4639 AccDes= 0.00D+00 IRadAn=         5 IDoV= 1 UseB2=F ITyADJ=14
 ICtDFT=  3500011 ScaDFX=  1.000000  1.000000  1.000000  1.000000
 FoFCou: FMM=F IPFlag=           0 FMFlag=      100000 FMFlg1=           0
         NFxFlg=           0 DoJE=T BraDBF=F KetDBF=T FulRan=T
         wScrn=  0.000000 ICntrl=       500 IOpCl=  0 I1Cent=   200000004 NGrid=           0
         NMat0=    1 NMatS0=      1 NMatT0=    0 NMatD0=    1 NMtDS0=    0 NMtDT0=    0
 Petite list used in FoFCou.
 Harris En= -330.321997728082    
 JPrj=0 DoOrth=F DoCkMO=F.
 Initial guess <Sx>= 0.0000 <Sy>= 0.0000 <Sz>= 0.5000 <S**2>= 0.7500 S= 0.5000
 Leave Link  401 at Tue May 20 11:00:20 2025, MaxMem=  3758096384 cpu:               2.4 elap:               0.4
 (Enter /gpfs/fs1/soft/bebop/software/custom-built/gaussian/16-c.02/g16/l502.exe)
 Keep R1 and R2 ints in memory in canonical form, NReq=165843629.
 FoFCou: FMM=F IPFlag=           0 FMFlag=           0 FMFlg1=           0
         NFxFlg=           0 DoJE=F BraDBF=F KetDBF=F FulRan=T
         wScrn=  0.000000 ICntrl=       600 IOpCl=  0 I1Cent=           0 NGrid=           0
         NMat0=    1 NMatS0=   8911 NMatT0=    0 NMatD0=    1 NMtDS0=    0 NMtDT0=    0
 Symmetry not used in FoFCou.
 Two-electron integral symmetry not used.
 UHF open shell SCF:
 Using DIIS extrapolation, IDIIS=  1040.
 NGot=  3758096384 LenX=  3599224750 LenY=  3599204709
 Requested convergence on RMS density matrix=1.00D-08 within  32 cycles.
 Requested convergence on MAX density matrix=1.00D-06.
 Requested convergence on             energy=1.00D-06.
 No special actions if energy rises.
 Integral accuracy reduced to 1.0D-05 until final iterations.

 Cycle   1  Pass 0  IDiag  1:
 E= -344.346936472409    
 DIIS: error= 2.60D-02 at cycle   1 NSaved=   1.
 NSaved= 1 IEnMin= 1 EnMin= -344.346936472409     IErMin= 1 ErrMin= 2.60D-02
 ErrMax= 2.60D-02  0.00D+00 EMaxC= 1.00D-01 BMatC= 1.34D+00 BMatP= 1.34D+00
 IDIUse=3 WtCom= 7.40D-01 WtEn= 2.60D-01
 Coeff-Com:  0.100D+01
 Coeff-En:   0.100D+01
 Coeff:      0.100D+01
 Gap=     0.200 Goal=   None    Shift=    0.000
 Gap=     0.498 Goal=   None    Shift=    0.000
 GapD=    0.200 DampG=1.000 DampE=0.500 DampFc=0.5000 IDamp=-1.
 Damping current iteration by 5.00D-01
 RMSDP=8.29D-03 MaxDP=2.17D-01              OVMax= 4.42D-01

 Cycle   2  Pass 0  IDiag  1:
 E= -344.414587048004     Delta-E=       -0.067650575595 Rises=F Damp=T
 DIIS: error= 1.27D-02 at cycle   2 NSaved=   2.
 NSaved= 2 IEnMin= 2 EnMin= -344.414587048004     IErMin= 2 ErrMin= 1.27D-02
 ErrMax= 1.27D-02  0.00D+00 EMaxC= 1.00D-01 BMatC= 1.67D-01 BMatP= 1.34D+00
 IDIUse=3 WtCom= 8.73D-01 WtEn= 1.27D-01
 Coeff-Com:  0.844D-01 0.916D+00
 Coeff-En:   0.291D+00 0.709D+00
 Coeff:      0.111D+00 0.889D+00
 Gap=     0.241 Goal=   None    Shift=    0.000
 Gap=     0.422 Goal=   None    Shift=    0.000
 RMSDP=2.38D-03 MaxDP=5.78D-02 DE=-6.77D-02 OVMax= 3.61D-01

 Cycle   3  Pass 0  IDiag  1:
 E= -344.568108054461     Delta-E=       -0.153521006457 Rises=F Damp=F
 DIIS: error= 3.90D-03 at cycle   3 NSaved=   3.
 NSaved= 3 IEnMin= 3 EnMin= -344.568108054461     IErMin= 3 ErrMin= 3.90D-03
 ErrMax= 3.90D-03  0.00D+00 EMaxC= 1.00D-01 BMatC= 2.21D-02 BMatP= 1.67D-01
 IDIUse=3 WtCom= 9.61D-01 WtEn= 3.90D-02
 Coeff-Com: -0.936D-01 0.175D+00 0.919D+00
 Coeff-En:   0.000D+00 0.000D+00 0.100D+01
 Coeff:     -0.900D-01 0.168D+00 0.922D+00
 Gap=     0.275 Goal=   None    Shift=    0.000
 Gap=     0.306 Goal=   None    Shift=    0.000
 RMSDP=8.67D-04 MaxDP=1.58D-02 DE=-1.54D-01 OVMax= 5.46D-02

 Cycle   4  Pass 0  IDiag  1:
 E= -344.576130666061     Delta-E=       -0.008022611599 Rises=F Damp=F
 DIIS: error= 1.61D-03 at cycle   4 NSaved=   4.
 NSaved= 4 IEnMin= 4 EnMin= -344.576130666061     IErMin= 4 ErrMin= 1.61D-03
 ErrMax= 1.61D-03  0.00D+00 EMaxC= 1.00D-01 BMatC= 2.66D-03 BMatP= 2.21D-02
 IDIUse=3 WtCom= 9.84D-01 WtEn= 1.61D-02
 Coeff-Com: -0.373D-01 0.496D-01 0.369D+00 0.619D+00
 Coeff-En:   0.000D+00 0.000D+00 0.000D+00 0.100D+01
 Coeff:     -0.367D-01 0.488D-01 0.363D+00 0.625D+00
 Gap=     0.282 Goal=   None    Shift=    0.000
 Gap=     0.309 Goal=   None    Shift=    0.000
 RMSDP=3.26D-04 MaxDP=6.89D-03 DE=-8.02D-03 OVMax= 2.00D-02

 Cycle   5  Pass 0  IDiag  1:
 E= -344.577500058633     Delta-E=       -0.001369392572 Rises=F Damp=F
 DIIS: error= 8.76D-04 at cycle   5 NSaved=   5.
 NSaved= 5 IEnMin= 5 EnMin= -344.577500058633     IErMin= 5 ErrMin= 8.76D-04
 ErrMax= 8.76D-04  0.00D+00 EMaxC= 1.00D-01 BMatC= 6.67D-04 BMatP= 2.66D-03
 IDIUse=3 WtCom= 9.91D-01 WtEn= 8.76D-03
 Coeff-Com:  0.204D-01-0.451D-01-0.209D+00 0.150D+00 0.108D+01
 Coeff-En:   0.000D+00 0.000D+00 0.000D+00 0.000D+00 0.100D+01
 Coeff:      0.203D-01-0.447D-01-0.207D+00 0.149D+00 0.108D+01
 Gap=     0.289 Goal=   None    Shift=    0.000
 Gap=     0.314 Goal=   None    Shift=    0.000
 RMSDP=4.09D-04 MaxDP=6.21D-03 DE=-1.37D-03 OVMax= 3.03D-02

 Cycle   6  Pass 0  IDiag  1:
 E= -344.578529267947     Delta-E=       -0.001029209314 Rises=F Damp=F
 DIIS: error= 5.75D-04 at cycle   6 NSaved=   6.
 NSaved= 6 IEnMin= 6 EnMin= -344.578529267947     IErMin= 6 ErrMin= 5.75D-04
 ErrMax= 5.75D-04  0.00D+00 EMaxC= 1.00D-01 BMatC= 2.32D-04 BMatP= 6.67D-04
 IDIUse=3 WtCom= 9.94D-01 WtEn= 5.75D-03
 Coeff-Com:  0.165D-01-0.280D-01-0.127D+00-0.143D+00 0.284D+00 0.998D+00
 Coeff-En:   0.000D+00 0.000D+00 0.000D+00 0.000D+00 0.000D+00 0.100D+01
 Coeff:      0.164D-01-0.278D-01-0.127D+00-0.142D+00 0.282D+00 0.998D+00
 Gap=     0.292 Goal=   None    Shift=    0.000
 Gap=     0.316 Goal=   None    Shift=    0.000
 RMSDP=2.36D-04 MaxDP=3.17D-03 DE=-1.03D-03 OVMax= 1.64D-02

 Cycle   7  Pass 0  IDiag  1:
 E= -344.578832844240     Delta-E=       -0.000303576293 Rises=F Damp=F
 DIIS: error= 2.85D-04 at cycle   7 NSaved=   7.
 NSaved= 7 IEnMin= 7 EnMin= -344.578832844240     IErMin= 7 ErrMin= 2.85D-04
 ErrMax= 2.85D-04  0.00D+00 EMaxC= 1.00D-01 BMatC= 8.30D-05 BMatP= 2.32D-04
 IDIUse=3 WtCom= 9.97D-01 WtEn= 2.85D-03
 Coeff-Com: -0.281D-02 0.835D-02 0.510D-01-0.840D-01-0.235D+00 0.375D+00
 Coeff-Com:  0.887D+00
 Coeff-En:   0.000D+00 0.000D+00 0.000D+00 0.000D+00 0.000D+00 0.000D+00
 Coeff-En:   0.100D+01
 Coeff:     -0.281D-02 0.832D-02 0.509D-01-0.838D-01-0.234D+00 0.374D+00
 Coeff:      0.888D+00
 Gap=     0.292 Goal=   None    Shift=    0.000
 Gap=     0.317 Goal=   None    Shift=    0.000
 RMSDP=1.09D-04 MaxDP=1.84D-03 DE=-3.04D-04 OVMax= 8.58D-03

 Cycle   8  Pass 0  IDiag  1:
 E= -344.578918310095     Delta-E=       -0.000085465855 Rises=F Damp=F
 DIIS: error= 1.91D-04 at cycle   8 NSaved=   8.
 NSaved= 8 IEnMin= 8 EnMin= -344.578918310095     IErMin= 8 ErrMin= 1.91D-04
 ErrMax= 1.91D-04  0.00D+00 EMaxC= 1.00D-01 BMatC= 2.36D-05 BMatP= 8.30D-05
 IDIUse=3 WtCom= 9.98D-01 WtEn= 1.91D-03
 Coeff-Com: -0.718D-02 0.134D-01 0.608D-01 0.133D-01-0.187D+00-0.237D+00
 Coeff-Com:  0.320D+00 0.102D+01
 Coeff-En:   0.000D+00 0.000D+00 0.000D+00 0.000D+00 0.000D+00 0.000D+00
 Coeff-En:   0.000D+00 0.100D+01
 Coeff:     -0.717D-02 0.134D-01 0.607D-01 0.132D-01-0.187D+00-0.237D+00
 Coeff:      0.320D+00 0.102D+01
 Gap=     0.292 Goal=   None    Shift=    0.000
 Gap=     0.317 Goal=   None    Shift=    0.000
 RMSDP=9.07D-05 MaxDP=1.81D-03 DE=-8.55D-05 OVMax= 7.08D-03

 Cycle   9  Pass 0  IDiag  1:
 E= -344.578959462895     Delta-E=       -0.000041152800 Rises=F Damp=F
 DIIS: error= 1.00D-04 at cycle   9 NSaved=   9.
 NSaved= 9 IEnMin= 9 EnMin= -344.578959462895     IErMin= 9 ErrMin= 1.00D-04
 ErrMax= 1.00D-04  0.00D+00 EMaxC= 1.00D-01 BMatC= 6.52D-06 BMatP= 2.36D-05
 IDIUse=3 WtCom= 9.99D-01 WtEn= 1.00D-03
 Coeff-Com: -0.119D-02 0.189D-02-0.282D-02 0.140D-01 0.129D-01-0.140D+00
 Coeff-Com: -0.879D-01 0.225D+00 0.978D+00
 Coeff-En:   0.000D+00 0.000D+00 0.000D+00 0.000D+00 0.000D+00 0.000D+00
 Coeff-En:   0.000D+00 0.000D+00 0.100D+01
 Coeff:     -0.119D-02 0.189D-02-0.282D-02 0.140D-01 0.129D-01-0.140D+00
 Coeff:     -0.878D-01 0.225D+00 0.979D+00
 Gap=     0.293 Goal=   None    Shift=    0.000
 Gap=     0.318 Goal=   None    Shift=    0.000
 RMSDP=4.31D-05 MaxDP=9.95D-04 DE=-4.12D-05 OVMax= 3.75D-03

 Failed to achieve initial convergence to 1.0D-08 in 10 cycles.
 Switch to full accuracy anyway.
 Cycle  10  Pass 1  IDiag  1:
 E= -344.578954090902     Delta-E=        0.000005371993 Rises=F Damp=F
 DIIS: error= 3.42D-05 at cycle   1 NSaved=   1.
 NSaved= 1 IEnMin= 1 EnMin= -344.578954090902     IErMin= 1 ErrMin= 3.42D-05
 ErrMax= 3.42D-05  0.00D+00 EMaxC= 1.00D-01 BMatC= 1.96D-06 BMatP= 1.96D-06
 IDIUse=1 WtCom= 1.00D+00 WtEn= 0.00D+00
 Coeff-Com:  0.100D+01
 Coeff:      0.100D+01
 Gap=     0.293 Goal=   None    Shift=    0.000
 Gap=     0.318 Goal=   None    Shift=    0.000
 RMSDP=4.31D-05 MaxDP=9.95D-04 DE= 5.37D-06 OVMax= 1.21D-03

 Cycle  11  Pass 1  IDiag  1:
 E= -344.578956524220     Delta-E=       -0.000002433319 Rises=F Damp=F
 DIIS: error= 4.43D-05 at cycle   2 NSaved=   2.
 NSaved= 2 IEnMin= 2 EnMin= -344.578956524220     IErMin= 1 ErrMin= 3.42D-05
 ErrMax= 4.43D-05  0.00D+00 EMaxC= 1.00D-01 BMatC= 1.00D-06 BMatP= 1.96D-06
 IDIUse=1 WtCom= 1.00D+00 WtEn= 0.00D+00
 Coeff-Com:  0.218D+00 0.782D+00
 Coeff:      0.218D+00 0.782D+00
 Gap=     0.293 Goal=   None    Shift=    0.000
 Gap=     0.318 Goal=   None    Shift=    0.000
 RMSDP=8.79D-06 MaxDP=2.33D-04 DE=-2.43D-06 OVMax= 8.31D-04

 Cycle  12  Pass 1  IDiag  1:
 E= -344.578957592528     Delta-E=       -0.000001068308 Rises=F Damp=F
 DIIS: error= 2.65D-05 at cycle   3 NSaved=   3.
 NSaved= 3 IEnMin= 3 EnMin= -344.578957592528     IErMin= 3 ErrMin= 2.65D-05
 ErrMax= 2.65D-05  0.00D+00 EMaxC= 1.00D-01 BMatC= 5.63D-07 BMatP= 1.00D-06
 IDIUse=1 WtCom= 1.00D+00 WtEn= 0.00D+00
 Coeff-Com: -0.464D+00 0.217D+00 0.125D+01
 Coeff:     -0.464D+00 0.217D+00 0.125D+01
 Gap=     0.293 Goal=   None    Shift=    0.000
 Gap=     0.318 Goal=   None    Shift=    0.000
 RMSDP=1.47D-05 MaxDP=3.36D-04 DE=-1.07D-06 OVMax= 1.22D-03

 Cycle  13  Pass 1  IDiag  1:
 E= -344.578958905417     Delta-E=       -0.000001312889 Rises=F Damp=F
 DIIS: error= 2.00D-05 at cycle   4 NSaved=   4.
 NSaved= 4 IEnMin= 4 EnMin= -344.578958905417     IErMin= 4 ErrMin= 2.00D-05
 ErrMax= 2.00D-05  0.00D+00 EMaxC= 1.00D-01 BMatC= 2.08D-07 BMatP= 5.63D-07
 IDIUse=1 WtCom= 1.00D+00 WtEn= 0.00D+00
 Coeff-Com: -0.204D+00-0.251D+00 0.346D+00 0.111D+01
 Coeff:     -0.204D+00-0.251D+00 0.346D+00 0.111D+01
 Gap=     0.293 Goal=   None    Shift=    0.000
 Gap=     0.318 Goal=   None    Shift=    0.000
 RMSDP=1.07D-05 MaxDP=2.37D-04 DE=-1.31D-06 OVMax= 9.68D-04

 Cycle  14  Pass 1  IDiag  1:
 E= -344.578959435967     Delta-E=       -0.000000530550 Rises=F Damp=F
 DIIS: error= 8.80D-06 at cycle   5 NSaved=   5.
 NSaved= 5 IEnMin= 5 EnMin= -344.578959435967     IErMin= 5 ErrMin= 8.80D-06
 ErrMax= 8.80D-06  0.00D+00 EMaxC= 1.00D-01 BMatC= 8.27D-08 BMatP= 2.08D-07
 IDIUse=1 WtCom= 1.00D+00 WtEn= 0.00D+00
 Coeff-Com:  0.101D+00-0.251D+00-0.369D+00 0.580D+00 0.940D+00
 Coeff:      0.101D+00-0.251D+00-0.369D+00 0.580D+00 0.940D+00
 Gap=     0.293 Goal=   None    Shift=    0.000
 Gap=     0.318 Goal=   None    Shift=    0.000
 RMSDP=7.49D-06 MaxDP=1.68D-04 DE=-5.31D-07 OVMax= 5.81D-04

 Cycle  15  Pass 1  IDiag  1:
 E= -344.578959603452     Delta-E=       -0.000000167485 Rises=F Damp=F
 DIIS: error= 4.58D-06 at cycle   6 NSaved=   6.
 NSaved= 6 IEnMin= 6 EnMin= -344.578959603452     IErMin= 6 ErrMin= 4.58D-06
 ErrMax= 4.58D-06  0.00D+00 EMaxC= 1.00D-01 BMatC= 1.88D-08 BMatP= 8.27D-08
 IDIUse=1 WtCom= 1.00D+00 WtEn= 0.00D+00
 Coeff-Com:  0.733D-01-0.463D-01-0.185D+00-0.149D-01 0.386D+00 0.786D+00
 Coeff:      0.733D-01-0.463D-01-0.185D+00-0.149D-01 0.386D+00 0.786D+00
 Gap=     0.293 Goal=   None    Shift=    0.000
 Gap=     0.318 Goal=   None    Shift=    0.000
 RMSDP=2.14D-06 MaxDP=4.58D-05 DE=-1.67D-07 OVMax= 1.88D-04

 Cycle  16  Pass 1  IDiag  1:
 E= -344.578959626259     Delta-E=       -0.000000022807 Rises=F Damp=F
 DIIS: error= 3.11D-06 at cycle   7 NSaved=   7.
 NSaved= 7 IEnMin= 7 EnMin= -344.578959626259     IErMin= 7 ErrMin= 3.11D-06
 ErrMax= 3.11D-06  0.00D+00 EMaxC= 1.00D-01 BMatC= 5.45D-09 BMatP= 1.88D-08
 IDIUse=1 WtCom= 1.00D+00 WtEn= 0.00D+00
 Coeff-Com: -0.289D-01 0.108D+00 0.134D+00-0.312D+00-0.295D+00 0.214D+00
 Coeff-Com:  0.118D+01
 Coeff:     -0.289D-01 0.108D+00 0.134D+00-0.312D+00-0.295D+00 0.214D+00
 Coeff:      0.118D+01
 Gap=     0.293 Goal=   None    Shift=    0.000
 Gap=     0.318 Goal=   None    Shift=    0.000
 RMSDP=2.00D-06 MaxDP=3.47D-05 DE=-2.28D-08 OVMax= 1.93D-04

 Cycle  17  Pass 1  IDiag  1:
 E= -344.578959638006     Delta-E=       -0.000000011746 Rises=F Damp=F
 DIIS: error= 1.57D-06 at cycle   8 NSaved=   8.
 NSaved= 8 IEnMin= 8 EnMin= -344.578959638006     IErMin= 8 ErrMin= 1.57D-06
 ErrMax= 1.57D-06  0.00D+00 EMaxC= 1.00D-01 BMatC= 8.96D-10 BMatP= 5.45D-09
 IDIUse=1 WtCom= 1.00D+00 WtEn= 0.00D+00
 Coeff-Com: -0.224D-01 0.373D-01 0.663D-01-0.734D-01-0.140D+00-0.114D+00
 Coeff-Com:  0.240D+00 0.101D+01
 Coeff:     -0.224D-01 0.373D-01 0.663D-01-0.734D-01-0.140D+00-0.114D+00
 Coeff:      0.240D+00 0.101D+01
 Gap=     0.293 Goal=   None    Shift=    0.000
 Gap=     0.318 Goal=   None    Shift=    0.000
 RMSDP=8.06D-07 MaxDP=1.58D-05 DE=-1.17D-08 OVMax= 8.39D-05

 Cycle  18  Pass 1  IDiag  1:
 E= -344.578959640110     Delta-E=       -0.000000002104 Rises=F Damp=F
 DIIS: error= 6.72D-07 at cycle   9 NSaved=   9.
 NSaved= 9 IEnMin= 9 EnMin= -344.578959640110     IErMin= 9 ErrMin= 6.72D-07
 ErrMax= 6.72D-07  0.00D+00 EMaxC= 1.00D-01 BMatC= 2.70D-10 BMatP= 8.96D-10
 IDIUse=1 WtCom= 1.00D+00 WtEn= 0.00D+00
 Coeff-Com:  0.146D-02-0.135D-01-0.164D-01 0.484D-01 0.359D-01-0.628D-01
 Coeff-Com: -0.212D+00 0.199D+00 0.102D+01
 Coeff:      0.146D-02-0.135D-01-0.164D-01 0.484D-01 0.359D-01-0.628D-01
 Coeff:     -0.212D+00 0.199D+00 0.102D+01
 Gap=     0.293 Goal=   None    Shift=    0.000
 Gap=     0.318 Goal=   None    Shift=    0.000
 RMSDP=3.44D-07 MaxDP=7.04D-06 DE=-2.10D-09 OVMax= 3.59D-05

 Cycle  19  Pass 1  IDiag  1:
 E= -344.578959640634     Delta-E=       -0.000000000524 Rises=F Damp=F
 DIIS: error= 3.35D-07 at cycle  10 NSaved=  10.
 NSaved=10 IEnMin=10 EnMin= -344.578959640634     IErMin=10 ErrMin= 3.35D-07
 ErrMax= 3.35D-07  0.00D+00 EMaxC= 1.00D-01 BMatC= 8.67D-11 BMatP= 2.70D-10
 IDIUse=1 WtCom= 1.00D+00 WtEn= 0.00D+00
 Coeff-Com:  0.867D-02-0.181D-01-0.302D-01 0.427D-01 0.647D-01 0.293D-01
 Coeff-Com: -0.162D+00-0.314D+00 0.291D+00 0.109D+01
 Coeff:      0.867D-02-0.181D-01-0.302D-01 0.427D-01 0.647D-01 0.293D-01
 Coeff:     -0.162D+00-0.314D+00 0.291D+00 0.109D+01
 Gap=     0.293 Goal=   None    Shift=    0.000
 Gap=     0.318 Goal=   None    Shift=    0.000
 RMSDP=2.14D-07 MaxDP=4.55D-06 DE=-5.24D-10 OVMax= 2.14D-05

 Cycle  20  Pass 1  IDiag  1:
 E= -344.578959640823     Delta-E=       -0.000000000189 Rises=F Damp=F
 DIIS: error= 1.68D-07 at cycle  11 NSaved=  11.
 NSaved=11 IEnMin=11 EnMin= -344.578959640823     IErMin=11 ErrMin= 1.68D-07
 ErrMax= 1.68D-07  0.00D+00 EMaxC= 1.00D-01 BMatC= 1.64D-11 BMatP= 8.67D-11
 IDIUse=1 WtCom= 1.00D+00 WtEn= 0.00D+00
 Coeff-Com: -0.557D-03 0.330D-02 0.491D-02-0.121D-01-0.109D-01 0.155D-01
 Coeff-Com:  0.552D-01-0.417D-01-0.250D+00-0.214D-01 0.126D+01
 Coeff:     -0.557D-03 0.330D-02 0.491D-02-0.121D-01-0.109D-01 0.155D-01
 Coeff:      0.552D-01-0.417D-01-0.250D+00-0.214D-01 0.126D+01
 Gap=     0.293 Goal=   None    Shift=    0.000
 Gap=     0.318 Goal=   None    Shift=    0.000
 RMSDP=9.80D-08 MaxDP=2.53D-06 DE=-1.89D-10 OVMax= 8.47D-06

 Cycle  21  Pass 1  IDiag  1:
 E= -344.578959640866     Delta-E=       -0.000000000044 Rises=F Damp=F
 DIIS: error= 9.36D-08 at cycle  12 NSaved=  12.
 NSaved=12 IEnMin=12 EnMin= -344.578959640866     IErMin=12 ErrMin= 9.36D-08
 ErrMax= 9.36D-08  0.00D+00 EMaxC= 1.00D-01 BMatC= 3.56D-12 BMatP= 1.64D-11
 IDIUse=1 WtCom= 1.00D+00 WtEn= 0.00D+00
 Coeff-Com: -0.203D-02 0.428D-02 0.774D-02-0.108D-01-0.169D-01-0.492D-02
 Coeff-Com:  0.477D-01 0.536D-01-0.103D+00-0.253D+00 0.213D+00 0.106D+01
 Coeff:     -0.203D-02 0.428D-02 0.774D-02-0.108D-01-0.169D-01-0.492D-02
 Coeff:      0.477D-01 0.536D-01-0.103D+00-0.253D+00 0.213D+00 0.106D+01
 Gap=     0.293 Goal=   None    Shift=    0.000
 Gap=     0.318 Goal=   None    Shift=    0.000
 RMSDP=4.21D-08 MaxDP=9.18D-07 DE=-4.39D-11 OVMax= 4.25D-06

 Cycle  22  Pass 1  IDiag  1:
 E= -344.578959640874     Delta-E=       -0.000000000008 Rises=F Damp=F
 DIIS: error= 3.29D-08 at cycle  13 NSaved=  13.
 NSaved=13 IEnMin=13 EnMin= -344.578959640874     IErMin=13 ErrMin= 3.29D-08
 ErrMax= 3.29D-08  0.00D+00 EMaxC= 1.00D-01 BMatC= 7.81D-13 BMatP= 3.56D-12
 IDIUse=1 WtCom= 1.00D+00 WtEn= 0.00D+00
 Coeff-Com: -0.141D-03-0.288D-03 0.236D-03 0.118D-02-0.508D-03-0.373D-02
 Coeff-Com: -0.272D-02 0.985D-02 0.484D-01-0.257D-01-0.246D+00 0.150D+00
 Coeff-Com:  0.107D+01
 Coeff:     -0.141D-03-0.288D-03 0.236D-03 0.118D-02-0.508D-03-0.373D-02
 Coeff:     -0.272D-02 0.985D-02 0.484D-01-0.257D-01-0.246D+00 0.150D+00
 Coeff:      0.107D+01
 Gap=     0.293 Goal=   None    Shift=    0.000
 Gap=     0.318 Goal=   None    Shift=    0.000
 RMSDP=1.51D-08 MaxDP=2.68D-07 DE=-7.50D-12 OVMax= 1.57D-06

 Cycle  23  Pass 1  IDiag  1:
 E= -344.578959640875     Delta-E=       -0.000000000001 Rises=F Damp=F
 DIIS: error= 1.40D-08 at cycle  14 NSaved=  14.
 NSaved=14 IEnMin=14 EnMin= -344.578959640875     IErMin=14 ErrMin= 1.40D-08
 ErrMax= 1.40D-08  0.00D+00 EMaxC= 1.00D-01 BMatC= 9.57D-14 BMatP= 7.81D-13
 IDIUse=1 WtCom= 1.00D+00 WtEn= 0.00D+00
 Coeff-Com:  0.384D-03-0.984D-03-0.139D-02 0.239D-02 0.315D-02 0.384D-03
 Coeff-Com: -0.942D-02-0.122D-01 0.286D-01 0.501D-01-0.789D-01-0.176D+00
 Coeff-Com:  0.110D+00 0.108D+01
 Coeff:      0.384D-03-0.984D-03-0.139D-02 0.239D-02 0.315D-02 0.384D-03
 Coeff:     -0.942D-02-0.122D-01 0.286D-01 0.501D-01-0.789D-01-0.176D+00
 Coeff:      0.110D+00 0.108D+01
 Gap=     0.293 Goal=   None    Shift=    0.000
 Gap=     0.318 Goal=   None    Shift=    0.000
 RMSDP=5.79D-09 MaxDP=9.39D-08 DE=-9.09D-13 OVMax= 6.20D-07

 SCF Done:  E(UwB97XD) =  -344.578959641     A.U. after   23 cycles
            NFock= 23  Conv=0.58D-08     -V/T= 2.0081
 <Sx>= 0.0000 <Sy>= 0.0000 <Sz>= 0.5000 <S**2>= 0.8022 S= 0.5258
 <L.S>=  0.00000000000    
 KE= 3.417976383780D+02 PE=-1.398802873661D+03 EE= 4.153703659958D+02
 Annihilation of the first spin contaminant:
 S**2 before annihilation     0.8022,   after     0.7515
 Leave Link  502 at Tue May 20 11:00:33 2025, MaxMem=  3758096384 cpu:              62.8 elap:              12.6
 (Enter /gpfs/fs1/soft/bebop/software/custom-built/gaussian/16-c.02/g16/l508.exe)
 QCSCF skips out because SCF is already converged.
 Leave Link  508 at Tue May 20 11:00:33 2025, MaxMem=  3758096384 cpu:               0.0 elap:               0.0
 (Enter /gpfs/fs1/soft/bebop/software/custom-built/gaussian/16-c.02/g16/l601.exe)
 Copying SCF densities to generalized density rwf, IOpCl= 1 IROHF=0.

 **********************************************************************

            Population analysis using the SCF Density.

 **********************************************************************

 Orbital symmetries:
 Alpha Orbitals:
       Occupied  (A) (A) (A) (A) (A) (A) (A) (A) (A) (A) (A) (A)
                 (A) (A) (A) (A) (A) (A) (A) (A) (A) (A) (A) (A)
                 (A) (A) (A)
       Virtual   (A) (A) (A) (A) (A) (A) (A) (A) (A) (A) (A) (A)
                 (A) (A) (A) (A) (A) (A) (A) (A) (A) (A) (A) (A)
                 (A) (A) (A) (A) (A) (A) (A) (A) (A) (A) (A) (A)
                 (A) (A) (A) (A) (A) (A) (A) (A) (A) (A) (A) (A)
                 (A) (A) (A) (A) (A) (A) (A) (A) (A) (A) (A) (A)
                 (A) (A) (A) (A) (A) (A) (A) (A) (A) (A) (A) (A)
                 (A) (A) (A) (A) (A) (A) (A) (A) (A) (A) (A) (A)
                 (A) (A) (A) (A) (A) (A) (A) (A) (A) (A) (A) (A)
                 (A) (A) (A) (A) (A) (A) (A) (A) (A) (A)
 Beta  Orbitals:
       Occupied  (A) (A) (A) (A) (A) (A) (A) (A) (A) (A) (A) (A)
                 (A) (A) (A) (A) (A) (A) (A) (A) (A) (A) (A) (A)
                 (A) (A)
       Virtual   (A) (A) (A) (A) (A) (A) (A) (A) (A) (A) (A) (A)
                 (A) (A) (A) (A) (A) (A) (A) (A) (A) (A) (A) (A)
                 (A) (A) (A) (A) (A) (A) (A) (A) (A) (A) (A) (A)
                 (A) (A) (A) (A) (A) (A) (A) (A) (A) (A) (A) (A)
                 (A) (A) (A) (A) (A) (A) (A) (A) (A) (A) (A) (A)
                 (A) (A) (A) (A) (A) (A) (A) (A) (A) (A) (A) (A)
                 (A) (A) (A) (A) (A) (A) (A) (A) (A) (A) (A) (A)
                 (A) (A) (A) (A) (A) (A) (A) (A) (A) (A) (A) (A)
                 (A) (A) (A) (A) (A) (A) (A) (A) (A) (A) (A)
 The electronic state is 2-A.
 Alpha  occ. eigenvalues --  -19.34304 -19.32391 -10.35678 -10.29589 -10.29541
 Alpha  occ. eigenvalues --  -10.29368 -10.29343  -1.25148  -1.03632  -0.91808
 Alpha  occ. eigenvalues --   -0.82968  -0.76828  -0.67594  -0.65973  -0.62442
 Alpha  occ. eigenvalues --   -0.58893  -0.57732  -0.54366  -0.50583  -0.48907
 Alpha  occ. eigenvalues --   -0.46540  -0.45532  -0.43761  -0.39695  -0.38857
 Alpha  occ. eigenvalues --   -0.31657  -0.23818
 Alpha virt. eigenvalues --    0.05476   0.10789   0.14146   0.14765   0.16719
 Alpha virt. eigenvalues --    0.18349   0.20157   0.22415   0.22891   0.24847
 Alpha virt. eigenvalues --    0.29387   0.36812   0.38670   0.44371   0.45985
 Alpha virt. eigenvalues --    0.48632   0.51931   0.52976   0.55610   0.57186
 Alpha virt. eigenvalues --    0.58676   0.60852   0.61581   0.64515   0.66639
 Alpha virt. eigenvalues --    0.67487   0.71831   0.72314   0.73562   0.73880
 Alpha virt. eigenvalues --    0.75323   0.77530   0.79076   0.80691   0.84106
 Alpha virt. eigenvalues --    0.85559   0.86240   0.90886   0.92673   0.98992
 Alpha virt. eigenvalues --    1.01351   1.03897   1.08691   1.12093   1.16031
 Alpha virt. eigenvalues --    1.17339   1.21984   1.33077   1.35541   1.36123
 Alpha virt. eigenvalues --    1.41349   1.44448   1.47977   1.51677   1.57938
 Alpha virt. eigenvalues --    1.66375   1.69729   1.70398   1.71979   1.74992
 Alpha virt. eigenvalues --    1.77039   1.78373   1.83638   1.84736   1.86396
 Alpha virt. eigenvalues --    1.87292   1.90210   1.95110   1.95850   2.00038
 Alpha virt. eigenvalues --    2.04216   2.05093   2.10893   2.12448   2.15611
 Alpha virt. eigenvalues --    2.17567   2.25685   2.26671   2.28319   2.31295
 Alpha virt. eigenvalues --    2.40796   2.43085   2.47160   2.49198   2.51855
 Alpha virt. eigenvalues --    2.52496   2.55286   2.61769   2.63981   2.71849
 Alpha virt. eigenvalues --    2.78492   2.84909   2.86764   2.89438   2.93096
 Alpha virt. eigenvalues --    3.01383   3.03250   3.05723   3.16368   3.17457
 Alpha virt. eigenvalues --    3.24432   3.38255   3.45001   3.58205   3.65342
 Alpha virt. eigenvalues --    3.96850
  Beta  occ. eigenvalues --  -19.34222 -19.32361 -10.35275 -10.29855 -10.29550
  Beta  occ. eigenvalues --  -10.28932 -10.28611  -1.24969  -1.03300  -0.91078
  Beta  occ. eigenvalues --   -0.82254  -0.74897  -0.67054  -0.65632  -0.61781
  Beta  occ. eigenvalues --   -0.58580  -0.57230  -0.53757  -0.50054  -0.48416
  Beta  occ. eigenvalues --   -0.45856  -0.44971  -0.43328  -0.38664  -0.36780
  Beta  occ. eigenvalues --   -0.30644
  Beta virt. eigenvalues --    0.01153   0.06124   0.11653   0.14384   0.16812
  Beta virt. eigenvalues --    0.17259   0.18518   0.21050   0.22976   0.23164
  Beta virt. eigenvalues --    0.25116   0.29983   0.37064   0.38937   0.44752
  Beta virt. eigenvalues --    0.46264   0.49004   0.52578   0.53245   0.56277
  Beta virt. eigenvalues --    0.57599   0.59561   0.61529   0.62072   0.65401
  Beta virt. eigenvalues --    0.67221   0.68080   0.72158   0.73122   0.74235
  Beta virt. eigenvalues --    0.74680   0.75957   0.77996   0.79731   0.81086
  Beta virt. eigenvalues --    0.84345   0.86062   0.86657   0.91537   0.92921
  Beta virt. eigenvalues --    0.99205   1.01505   1.04354   1.08872   1.12250
  Beta virt. eigenvalues --    1.16380   1.17917   1.22359   1.33442   1.36101
  Beta virt. eigenvalues --    1.36722   1.42013   1.44783   1.48382   1.51967
  Beta virt. eigenvalues --    1.58395   1.66664   1.70247   1.70698   1.72330
  Beta virt. eigenvalues --    1.75138   1.77574   1.78586   1.84427   1.85275
  Beta virt. eigenvalues --    1.86864   1.87600   1.91001   1.95760   1.97123
  Beta virt. eigenvalues --    2.00838   2.04788   2.05751   2.11144   2.13519
  Beta virt. eigenvalues --    2.16238   2.18424   2.26482   2.26861   2.29520
  Beta virt. eigenvalues --    2.32512   2.41739   2.43795   2.48070   2.49485
  Beta virt. eigenvalues --    2.52224   2.52725   2.56287   2.62970   2.64601
  Beta virt. eigenvalues --    2.72277   2.78903   2.85201   2.87198   2.90101
  Beta virt. eigenvalues --    2.93835   3.01430   3.03789   3.06302   3.16800
  Beta virt. eigenvalues --    3.17652   3.24881   3.38543   3.45294   3.58570
  Beta virt. eigenvalues --    3.65419   3.96960
          Condensed to atoms (all electrons):
               1          2          3          4          5          6
     1  C    4.978771   0.369982   0.409769  -0.049848  -0.048125  -0.066242
     2  C    0.369982   4.991842  -0.046000   0.455052   0.424366  -0.052602
     3  H    0.409769  -0.046000   0.630602   0.006860  -0.003641  -0.000039
     4  C   -0.049848   0.455052   0.006860   4.820235  -0.050564   0.535062
     5  H   -0.048125   0.424366  -0.003641  -0.050564   0.639202   0.009514
     6  C   -0.066242  -0.052602  -0.000039   0.535062   0.009514   5.004052
     7  H    0.009091  -0.046271  -0.000300   0.420497  -0.007207  -0.047777
     8  H   -0.004338  -0.026233   0.000330  -0.001175  -0.000238   0.375878
     9  H    0.002950   0.009277  -0.000004  -0.020585  -0.000185   0.377941
    10  C    0.514981  -0.051123  -0.028382  -0.034897   0.009760  -0.050783
    11  H   -0.031351   0.008420  -0.012232   0.003070  -0.000297  -0.004018
    12  O   -0.042140  -0.002710   0.002535  -0.010675  -0.000000  -0.028487
    13  O    0.004680  -0.000559  -0.000049   0.000769   0.000009   0.003393
    14  H   -0.000526   0.000055   0.000000   0.000041  -0.000002  -0.000655
               7          8          9         10         11         12
     1  C    0.009091  -0.004338   0.002950   0.514981  -0.031351  -0.042140
     2  C   -0.046271  -0.026233   0.009277  -0.051123   0.008420  -0.002710
     3  H   -0.000300   0.000330  -0.000004  -0.028382  -0.012232   0.002535
     4  C    0.420497  -0.001175  -0.020585  -0.034897   0.003070  -0.010675
     5  H   -0.007207  -0.000238  -0.000185   0.009760  -0.000297  -0.000000
     6  C   -0.047777   0.375878   0.377941  -0.050783  -0.004018  -0.028487
     7  H    0.643004   0.005356  -0.011061   0.001851  -0.000000  -0.000466
     8  H    0.005356   0.607625  -0.035779   0.015361   0.005193  -0.015792
     9  H   -0.011061  -0.035779   0.641613   0.000654  -0.000247  -0.000511
    10  C    0.001851   0.015361   0.000654   4.905749   0.389228   0.282512
    11  H   -0.000000   0.005193  -0.000247   0.389228   0.621969  -0.035559
    12  O   -0.000466  -0.015792  -0.000511   0.282512  -0.035559   7.967681
    13  O    0.000006   0.000778  -0.000026  -0.051444   0.007802   0.100804
    14  H    0.000000   0.000245   0.000047   0.002595   0.001453  -0.017788
              13         14
     1  C    0.004680  -0.000526
     2  C   -0.000559   0.000055
     3  H   -0.000049   0.000000
     4  C    0.000769   0.000041
     5  H    0.000009  -0.000002
     6  C    0.003393  -0.000655
     7  H    0.000006   0.000000
     8  H    0.000778   0.000245
     9  H   -0.000026   0.000047
    10  C   -0.051444   0.002595
    11  H    0.007802   0.001453
    12  O    0.100804  -0.017788
    13  O    7.762538   0.312899
    14  H    0.312899   0.500856
          Atomic-Atomic Spin Densities.
               1          2          3          4          5          6
     1  C   -0.189622  -0.042078   0.003125   0.010624   0.000687  -0.009399
     2  C   -0.042078   0.688516  -0.006887  -0.012475   0.005952  -0.023214
     3  H    0.003125  -0.006887   0.021169   0.000757  -0.000111  -0.001539
     4  C    0.010624  -0.012475   0.000757  -0.283172   0.000576  -0.011090
     5  H    0.000687   0.005952  -0.000111   0.000576  -0.034346  -0.000316
     6  C   -0.009399  -0.023214  -0.001539  -0.011090  -0.000316   0.798458
     7  H   -0.000035  -0.003810  -0.000049   0.002324   0.000145  -0.002432
     8  H    0.003502  -0.001075   0.000273   0.002091  -0.000022  -0.005785
     9  H   -0.000153  -0.000408   0.000016  -0.000948   0.000012  -0.000262
    10  C    0.034936  -0.023321  -0.002529   0.003873  -0.000530  -0.085120
    11  H   -0.000780   0.000038   0.000364  -0.000143   0.000015  -0.000195
    12  O    0.000079   0.003726   0.000280   0.003729  -0.000011  -0.030803
    13  O   -0.000017  -0.000118  -0.000008  -0.000138  -0.000000   0.002222
    14  H   -0.000008  -0.000019  -0.000003  -0.000002   0.000000   0.000760
               7          8          9         10         11         12
     1  C   -0.000035   0.003502  -0.000153   0.034936  -0.000780   0.000079
     2  C   -0.003810  -0.001075  -0.000408  -0.023321   0.000038   0.003726
     3  H   -0.000049   0.000273   0.000016  -0.002529   0.000364   0.000280
     4  C    0.002324   0.002091  -0.000948   0.003873  -0.000143   0.003729
     5  H    0.000145  -0.000022   0.000012  -0.000530   0.000015  -0.000011
     6  C   -0.002432  -0.005785  -0.000262  -0.085120  -0.000195  -0.030803
     7  H    0.023923  -0.000484  -0.000457  -0.000638  -0.000002  -0.000182
     8  H   -0.000484  -0.031241   0.002910   0.004401  -0.000032   0.002032
     9  H   -0.000457   0.002910  -0.028905   0.002465   0.000016  -0.000104
    10  C   -0.000638   0.004401   0.002465   0.387473   0.002365  -0.021991
    11  H   -0.000002  -0.000032   0.000016   0.002365  -0.018583   0.000762
    12  O   -0.000182   0.002032  -0.000104  -0.021991   0.000762   0.051976
    13  O    0.000004  -0.000152  -0.000002  -0.000667   0.000443  -0.004766
    14  H    0.000003  -0.000037  -0.000044   0.000162  -0.000082  -0.000674
              13         14
     1  C   -0.000017  -0.000008
     2  C   -0.000118  -0.000019
     3  H   -0.000008  -0.000003
     4  C   -0.000138  -0.000002
     5  H   -0.000000   0.000000
     6  C    0.002222   0.000760
     7  H    0.000004   0.000003
     8  H   -0.000152  -0.000037
     9  H   -0.000002  -0.000044
    10  C   -0.000667   0.000162
    11  H    0.000443  -0.000082
    12  O   -0.004766  -0.000674
    13  O    0.015389   0.000118
    14  H    0.000118  -0.000325
 Mulliken charges and spin densities:
               1          2
     1  C   -0.047654  -0.189138
     2  C   -0.033494   0.584827
     3  H    0.040551   0.014859
     4  C   -0.073843  -0.283995
     5  H    0.027409  -0.027948
     6  C   -0.055237   0.631286
     7  H    0.033279   0.018309
     8  H    0.072789  -0.023617
     9  H    0.035916  -0.025864
    10  C    0.093938   0.300879
    11  H    0.046569  -0.015811
    12  O   -0.199404   0.004054
    13  O   -0.141599   0.012308
    14  H    0.200781  -0.000151
 Sum of Mulliken charges =  -0.00000   1.00000
 Mulliken charges and spin densities with hydrogens summed into heavy atoms:
               1          2
     1  C   -0.007103  -0.174279
     2  C   -0.006085   0.556880
     4  C   -0.040565  -0.265685
     6  C    0.053468   0.581805
    10  C    0.140507   0.285069
    12  O   -0.199404   0.004054
    13  O    0.059182   0.012157
 Electronic spatial extent (au):  <R**2>=            734.5140
 Charge=             -0.0000 electrons
 Dipole moment (field-independent basis, Debye):
    X=             -0.7951    Y=              0.9192    Z=              0.9736  Tot=              1.5573
 Quadrupole moment (field-independent basis, Debye-Ang):
   XX=            -37.7288   YY=            -38.2295   ZZ=            -42.3681
   XY=             -4.8527   XZ=             -2.9743   YZ=             -1.7067
 Traceless Quadrupole moment (field-independent basis, Debye-Ang):
   XX=              1.7134   YY=              1.2126   ZZ=             -2.9259
   XY=             -4.8527   XZ=             -2.9743   YZ=             -1.7067
 Octapole moment (field-independent basis, Debye-Ang**2):
  XXX=            -31.5065  YYY=              3.1856  ZZZ=             -1.1325  XYY=             -8.2859
  XXY=             12.0431  XXZ=             -5.3935  XZZ=             -6.3663  YZZ=              0.3170
  YYZ=              0.5489  XYZ=             -0.0220
 Hexadecapole moment (field-independent basis, Debye-Ang**3):
 XXXX=           -516.2232 YYYY=           -251.0943 ZZZZ=           -100.4567 XXXY=            -49.5669
 XXXZ=            -11.9819 YYYX=            -11.5162 YYYZ=             -9.4512 ZZZX=              1.6574
 ZZZY=             -2.9102 XXYY=           -122.0933 XXZZ=           -112.8501 YYZZ=            -60.3520
 XXYZ=             -6.3188 YYXZ=             -1.7019 ZZXY=             -1.3925
 N-N= 2.970559096459D+02 E-N=-1.398802872843D+03  KE= 3.417976383780D+02
                          Isotropic Fermi Contact Couplings
        Atom                 a.u.       MegaHertz       Gauss      10(-4) cm-1
     1  C(13)             -0.05322     -59.82745     -21.34792     -19.95629
     2  C(13)              0.10315     115.96294      41.37846      38.68107
     3  H(1)               0.00579      25.86527       9.22937       8.62772
     4  C(13)             -0.07644     -85.92999     -30.66196     -28.66316
     5  H(1)              -0.00871     -38.91913     -13.88731     -12.98202
     6  C(13)              0.15465     173.86055      62.03777      57.99364
     7  H(1)               0.00699      31.26248      11.15523      10.42804
     8  H(1)              -0.00867     -38.76540     -13.83246     -12.93074
     9  H(1)              -0.00684     -30.56818     -10.90749     -10.19645
    10  C(13)              0.06466      72.69083      25.93790      24.24705
    11  H(1)              -0.00487     -21.75707      -7.76346      -7.25738
    12  O(17)              0.14022     -85.00336     -30.33131     -28.35407
    13  O(17)             -0.00096       0.57982       0.20689       0.19341
    14  H(1)              -0.00020      -0.89218      -0.31835      -0.29760
 --------------------------------------------------------
       Center         ----  Spin Dipole Couplings  ----
                      3XX-RR        3YY-RR        3ZZ-RR
 --------------------------------------------------------
     1   Atom        0.061014      0.021285     -0.082299
     2   Atom       -0.072848     -0.292217      0.365065
     3   Atom        0.005594      0.001245     -0.006838
     4   Atom       -0.054775      0.106824     -0.052049
     5   Atom        0.021418     -0.025956      0.004538
     6   Atom        0.363644     -0.220839     -0.142806
     7   Atom       -0.000788      0.003860     -0.003072
     8   Atom       -0.022840     -0.013582      0.036423
     9   Atom       -0.009770      0.045921     -0.036150
    10   Atom       -0.141478      0.040132      0.101347
    11   Atom       -0.001398     -0.004531      0.005929
    12   Atom       -0.046274     -0.011072      0.057347
    13   Atom        0.048511     -0.019953     -0.028557
    14   Atom        0.005563     -0.000481     -0.005082
 --------------------------------------------------------
                        XY            XZ            YZ
 --------------------------------------------------------
     1   Atom       -0.028830     -0.056279     -0.078450
     2   Atom       -0.035735      0.369584     -0.046690
     3   Atom       -0.000708     -0.005214      0.000425
     4   Atom       -0.019253     -0.169870      0.004063
     5   Atom       -0.027889     -0.011525      0.013303
     6   Atom        0.265938      0.363033      0.129153
     7   Atom       -0.006118     -0.006341      0.006665
     8   Atom        0.016012      0.002909     -0.031614
     9   Atom       -0.011110      0.016685      0.004004
    10   Atom        0.103213      0.100305      0.249963
    11   Atom        0.020727     -0.015424     -0.004615
    12   Atom       -0.015728     -0.006824      0.081852
    13   Atom        0.031456      0.009754      0.002491
    14   Atom       -0.002915      0.001655      0.000051
 --------------------------------------------------------


 ---------------------------------------------------------------------------------
              Anisotropic Spin Dipole Couplings in Principal Axis System
 ---------------------------------------------------------------------------------

       Atom             a.u.   MegaHertz   Gauss  10(-4) cm-1        Axes

              Baa    -0.1440   -19.324    -6.895    -6.446  0.2947  0.4512  0.8424
     1 C(13)  Bbb     0.0634     8.509     3.036     2.838 -0.0676  0.8891 -0.4526
              Bcc     0.0806    10.815     3.859     3.608  0.9532 -0.0764 -0.2925
 
              Baa    -0.2999   -40.246   -14.361   -13.425  0.4062  0.8992 -0.1626
     2 C(13)  Bbb    -0.2797   -37.528   -13.391   -12.518  0.7684 -0.4324 -0.4718
              Bcc     0.5796    77.774    27.752    25.942  0.4946 -0.0667  0.8666
 
              Baa    -0.0087    -4.662    -1.664    -1.555  0.3412 -0.0158  0.9399
     3 H(1)   Bbb     0.0011     0.610     0.218     0.204  0.1245  0.9918 -0.0285
              Bcc     0.0076     4.052     1.446     1.352  0.9317 -0.1267 -0.3403
 
              Baa    -0.2236   -30.011   -10.709   -10.010  0.7107  0.0328  0.7028
     4 C(13)  Bbb     0.0947    12.714     4.537     4.241  0.4057  0.7970 -0.4474
              Bcc     0.1289    17.297     6.172     5.770 -0.5748  0.6031  0.5531
 
              Baa    -0.0401   -21.411    -7.640    -7.142  0.3795  0.9089 -0.1728
     5 H(1)   Bbb    -0.0013    -0.692    -0.247    -0.231  0.4398 -0.0129  0.8980
              Bcc     0.0414    22.103     7.887     7.373  0.8140 -0.4168 -0.4046
 
              Baa    -0.3364   -45.138   -16.106   -15.056 -0.5393  0.4355  0.7208
     6 C(13)  Bbb    -0.3166   -42.487   -15.161   -14.172 -0.0412  0.8412 -0.5391
              Bcc     0.6530    87.625    31.267    29.229  0.8411  0.3204  0.4357
 
              Baa    -0.0086    -4.587    -1.637    -1.530  0.5291 -0.1834  0.8285
     7 H(1)   Bbb    -0.0046    -2.452    -0.875    -0.818  0.6656  0.6953 -0.2712
              Bcc     0.0132     7.039     2.512     2.348 -0.5263  0.6949  0.4899
 
              Baa    -0.0419   -22.364    -7.980    -7.460 -0.6388  0.7049  0.3082
     8 H(1)   Bbb    -0.0101    -5.376    -1.918    -1.793  0.7670  0.5519  0.3273
              Bcc     0.0520    27.740     9.898     9.253 -0.0606 -0.4455  0.8933
 
              Baa    -0.0450   -24.024    -8.572    -8.014 -0.4499 -0.0941  0.8881
     9 H(1)   Bbb    -0.0030    -1.620    -0.578    -0.540  0.8735  0.1606  0.4595
              Bcc     0.0481    25.644     9.150     8.554 -0.1859  0.9825  0.0099
 
              Baa    -0.1921   -25.779    -9.199    -8.599  0.7000 -0.6438  0.3091
    10 C(13)  Bbb    -0.1713   -22.983    -8.201    -7.666  0.6597  0.4171 -0.6252
              Bcc     0.3634    48.763    17.400    16.265  0.2735  0.6415  0.7167
 
              Baa    -0.0256   -13.678    -4.881    -4.563  0.7171 -0.6484  0.2556
    11 H(1)   Bbb    -0.0022    -1.159    -0.414    -0.387  0.2397  0.5738  0.7831
              Bcc     0.0278    14.838     5.294     4.949  0.6544  0.5004 -0.5669
 
              Baa    -0.0695     5.029     1.794     1.677  0.3883  0.7837 -0.4848
    12 O(17)  Bbb    -0.0437     3.159     1.127     1.054  0.9171 -0.2771  0.2865
              Bcc     0.1132    -8.188    -2.922    -2.731 -0.0902  0.5559  0.8263
 
              Baa    -0.0327     2.366     0.844     0.789 -0.3739  0.8509  0.3691
    13 O(17)  Bbb    -0.0292     2.111     0.753     0.704  0.0392 -0.3831  0.9229
              Bcc     0.0619    -4.477    -1.598    -1.493  0.9266  0.3596  0.1099
 
              Baa    -0.0054    -2.876    -1.026    -0.959 -0.1785 -0.1163  0.9770
    14 H(1)   Bbb    -0.0015    -0.822    -0.293    -0.274  0.3394  0.9248  0.1721
              Bcc     0.0069     3.698     1.320     1.234  0.9236 -0.3623  0.1257
 

 ---------------------------------------------------------------------------------

 No NMR shielding tensors so no spin-rotation constants.
 Leave Link  601 at Tue May 20 11:00:33 2025, MaxMem=  3758096384 cpu:               0.8 elap:               0.2
 (Enter /gpfs/fs1/soft/bebop/software/custom-built/gaussian/16-c.02/g16/l701.exe)
 ... and contract with generalized density number  0.
 Compute integral first derivatives.
 R6Disp: Adding Grimme-D2 dispersion energy 1st derivatives to the gradient.
   1 Symmetry operations used in ECPInt.
 ECPInt:  NShTT=    2016 NPrTT=    7252 LenC2=    2008 LenP2D=    5973.
 LDataN:  DoStor=T MaxTD1= 5 Len=  102
 Leave Link  701 at Tue May 20 11:00:33 2025, MaxMem=  3758096384 cpu:               0.5 elap:               0.1
 (Enter /gpfs/fs1/soft/bebop/software/custom-built/gaussian/16-c.02/g16/l702.exe)
 L702 exits ... SP integral derivatives will be done elsewhere.
 Leave Link  702 at Tue May 20 11:00:33 2025, MaxMem=  3758096384 cpu:               0.1 elap:               0.0
 (Enter /gpfs/fs1/soft/bebop/software/custom-built/gaussian/16-c.02/g16/l703.exe)
 Integral derivatives from FoFJK, PRISM(SPDF).
 Compute integral first derivatives, UseDBF=F ICtDFT=           0.
 Calling FoFJK, ICntrl=      2127 FMM=F ISym2X=0 I1Cent= 0 IOpClX= 1 NMat=1 NMatS=1 NMatT=0.
 FoFJK:  IHMeth= 1 ICntrl=    2127 DoSepK=T KAlg= 0 I1Cent=           0 FoldK=F
 IRaf=         1 NMat=       1 IRICut=       1 DoRegI=T DoRafI=F ISym2E= 0 IDoP0=0 IntGTp=1.
 FoFCou: FMM=F IPFlag=           0 FMFlag=      100000 FMFlg1=         800
         NFxFlg=           0 DoJE=F BraDBF=F KetDBF=F FulRan=T
         wScrn=  0.000000 ICntrl=      2527 IOpCl=  0 I1Cent=           0 NGrid=           0
         NMat0=    1 NMatS0=      1 NMatT0=    0 NMatD0=    1 NMtDS0=    0 NMtDT0=    0
 Symmetry not used in FoFCou.
 Leave Link  703 at Tue May 20 11:00:35 2025, MaxMem=  3758096384 cpu:              12.1 elap:               2.0
 (Enter /gpfs/fs1/soft/bebop/software/custom-built/gaussian/16-c.02/g16/l716.exe)
 Dipole        =-3.12807944D-01 3.61651351D-01 3.83055043D-01
 ***** Axes restored to original set *****
 -------------------------------------------------------------------
 Center     Atomic                   Forces (Hartrees/Bohr)
 Number     Number              X              Y              Z
 -------------------------------------------------------------------
      1        6          -0.000252623   -0.001401368    0.012133665
      2        6           0.003401453    0.002016385    0.002363277
      3        1          -0.002063755    0.000255418   -0.001567506
      4        6           0.001743233   -0.000480451    0.001445055
      5        1          -0.000289851    0.000046652    0.000642748
      6        6          -0.014306393   -0.039245376    0.050326621
      7        1           0.000056751   -0.000189661   -0.000093732
      8        1           0.000386183   -0.001948790    0.000744560
      9        1          -0.000026792   -0.000029418   -0.000044790
     10        6           0.015996559    0.038555596   -0.063438773
     11        1          -0.003153779   -0.001611696   -0.000743590
     12        8          -0.000970910    0.002814512   -0.000985634
     13        8          -0.000548830    0.001245338   -0.000877307
     14        1           0.000028753   -0.000027142    0.000095407
 -------------------------------------------------------------------
 Cartesian Forces:  Max     0.063438773 RMS     0.015627946
 -----------------------------------------------------------------------------------------------
                       Internal Coordinate Forces (Hartree/Bohr or radian)
  Cent   Atom   N1       Length/X         N2         Alpha/Y        N3         Beta/Z          J
 -----------------------------------------------------------------------------------------------
      1  C 
      2  C        1  -0.011112(     1)
      3  H        1  -0.000889(     2)      2   0.005030(    14)
      4  C        2  -0.004978(     3)      1  -0.011180(    15)      3  -0.000345(    26)     0
      5  H        2   0.000175(     4)      1   0.001352(    16)      4   0.000338(    27)     0
      6  C        4   0.010059(     5)      2   0.023476(    17)      1   0.001386(    28)     0
      7  H        4  -0.000121(     6)      2   0.000213(    18)      6  -0.000268(    29)     0
      8  H        6   0.000268(     7)      4   0.000997(    19)      2  -0.003745(    30)     0
      9  H        6   0.000019(     8)      4   0.000117(    20)      8   0.000011(    31)     0
     10  C        6   0.078708(     9)      4   0.051940(    21)      8  -0.007238(    32)     0
     11  H       10   0.000827(    10)      6  -0.004885(    22)      4   0.006983(    33)     0
     12  O       10   0.001680(    11)      6   0.008807(    23)     11   0.003012(    34)     0
     13  O       12   0.001185(    12)     10   0.000586(    24)      1  -0.002375(    35)     0
     14  H       13   0.000008(    13)     12  -0.000187(    25)     10   0.000017(    36)     0
 -----------------------------------------------------------------------------------------------
 Internal  Forces:  Max     0.078708101 RMS     0.016738328
 Force constants in internal coordinates: 
                1             2             3             4             5 
      1  0.652116D+00
      2  0.000000D+00  0.344133D+00
      3 -0.449353D-01  0.000000D+00  0.710495D+00
      4  0.000000D+00  0.000000D+00  0.000000D+00  0.347276D+00
      5 -0.236486D+00  0.000000D+00  0.239919D+00  0.000000D+00  0.891104D+00
      6  0.000000D+00  0.000000D+00  0.000000D+00  0.000000D+00  0.000000D+00
      7  0.000000D+00  0.000000D+00  0.000000D+00  0.000000D+00  0.000000D+00
      8  0.000000D+00  0.000000D+00  0.000000D+00  0.000000D+00  0.000000D+00
      9 -0.117519D+00  0.000000D+00 -0.955492D-01  0.000000D+00  0.255368D-01
     10  0.000000D+00  0.000000D+00  0.000000D+00  0.000000D+00  0.000000D+00
     11  0.000000D+00  0.000000D+00  0.000000D+00  0.000000D+00  0.000000D+00
     12  0.000000D+00  0.000000D+00  0.000000D+00  0.000000D+00  0.000000D+00
     13  0.000000D+00  0.000000D+00  0.000000D+00  0.000000D+00  0.000000D+00
     14 -0.530427D-01  0.000000D+00 -0.409227D-01  0.000000D+00  0.178830D-01
     15 -0.260953D+00  0.000000D+00  0.910696D+00  0.000000D+00  0.929640D+00
     16  0.000000D+00  0.000000D+00  0.000000D+00  0.000000D+00  0.000000D+00
     17 -0.894772D+00  0.000000D+00  0.120346D+01  0.000000D+00  0.172464D+01
     18  0.000000D+00  0.000000D+00  0.000000D+00  0.000000D+00  0.000000D+00
     19 -0.437094D-03  0.000000D+00 -0.577509D-04  0.000000D+00  0.509514D-03
     20  0.522008D-03  0.000000D+00  0.689701D-04  0.000000D+00 -0.608497D-03
     21 -0.118508D+01  0.000000D+00  0.892682D+00  0.000000D+00  0.173621D+01
     22  0.339094D-01  0.000000D+00  0.394141D-01  0.000000D+00  0.574145D-02
     23  0.472532D-01  0.000000D+00  0.506761D-01  0.000000D+00  0.249619D-02
     24  0.000000D+00  0.000000D+00  0.000000D+00  0.000000D+00  0.000000D+00
     25  0.000000D+00  0.000000D+00  0.000000D+00  0.000000D+00  0.000000D+00
     26 -0.888980D-02  0.000000D+00  0.393809D-02  0.000000D+00  0.169880D-01
     27  0.000000D+00  0.000000D+00 -0.303524D-02  0.000000D+00 -0.393324D-02
     28  0.105693D+00  0.000000D+00 -0.300364D+00  0.000000D+00 -0.279847D+00
     29  0.000000D+00  0.000000D+00  0.000000D+00  0.000000D+00  0.000000D+00
     30  0.430710D+00  0.000000D+00 -0.759580D+00  0.000000D+00 -0.904225D+00
     31 -0.302982D-03  0.000000D+00 -0.400314D-04  0.000000D+00  0.353181D-03
     32  0.430834D+00  0.000000D+00 -0.759564D+00  0.000000D+00 -0.904369D+00
     33 -0.911201D-01  0.000000D+00 -0.428457D-01  0.000000D+00  0.662966D-01
     34 -0.563894D-01  0.000000D+00 -0.203953D-01  0.000000D+00  0.489577D-01
     35  0.100969D-01  0.000000D+00  0.156881D-01  0.000000D+00  0.683086D-02
     36  0.000000D+00  0.000000D+00  0.000000D+00  0.000000D+00  0.000000D+00
                6             7             8             9            10 
      6  0.342857D+00
      7  0.000000D+00  0.352754D+00
      8  0.000000D+00  0.000000D+00  0.342629D+00
      9  0.000000D+00  0.000000D+00  0.000000D+00  0.174430D+00
     10  0.000000D+00  0.000000D+00  0.000000D+00  0.000000D+00  0.342379D+00
     11  0.000000D+00  0.000000D+00  0.000000D+00  0.000000D+00  0.000000D+00
     12  0.000000D+00  0.000000D+00  0.000000D+00  0.000000D+00  0.000000D+00
     13  0.000000D+00  0.000000D+00  0.000000D+00  0.000000D+00  0.000000D+00
     14  0.000000D+00  0.000000D+00  0.000000D+00  0.470232D-01  0.000000D+00
     15  0.000000D+00  0.000000D+00  0.000000D+00 -0.267952D+00  0.000000D+00
     16  0.000000D+00  0.000000D+00  0.000000D+00  0.000000D+00  0.000000D+00
     17  0.000000D+00  0.000000D+00  0.000000D+00 -0.390162D-01  0.000000D+00
     18  0.000000D+00  0.000000D+00  0.000000D+00  0.000000D+00  0.000000D+00
     19  0.000000D+00  0.000000D+00  0.000000D+00  0.000000D+00  0.000000D+00
     20  0.000000D+00  0.000000D+00  0.000000D+00  0.000000D+00  0.000000D+00
     21  0.000000D+00  0.000000D+00  0.000000D+00  0.293157D+00  0.000000D+00
     22  0.000000D+00  0.000000D+00  0.000000D+00 -0.484366D-01  0.000000D+00
     23  0.000000D+00  0.000000D+00  0.000000D+00 -0.616071D-01  0.000000D+00
     24  0.000000D+00  0.000000D+00  0.000000D+00  0.000000D+00  0.000000D+00
     25  0.000000D+00  0.000000D+00  0.000000D+00  0.000000D+00  0.000000D+00
     26  0.000000D+00  0.000000D+00  0.000000D+00 -0.708882D-02  0.000000D+00
     27  0.000000D+00  0.000000D+00  0.000000D+00  0.420844D-02  0.000000D+00
     28  0.000000D+00  0.000000D+00  0.000000D+00 -0.226162D-03  0.000000D+00
     29  0.000000D+00  0.000000D+00  0.000000D+00  0.000000D+00  0.000000D+00
     30  0.000000D+00  0.000000D+00  0.000000D+00 -0.882238D-02  0.000000D+00
     31  0.000000D+00  0.000000D+00  0.000000D+00  0.000000D+00  0.000000D+00
     32  0.000000D+00  0.000000D+00  0.000000D+00 -0.882238D-02  0.000000D+00
     33  0.000000D+00  0.000000D+00  0.000000D+00  0.427139D-01  0.000000D+00
     34  0.000000D+00  0.000000D+00  0.000000D+00  0.179483D-01  0.000000D+00
     35  0.000000D+00  0.000000D+00  0.000000D+00 -0.199022D-01  0.000000D+00
     36  0.000000D+00  0.000000D+00  0.000000D+00  0.000000D+00  0.000000D+00
               11            12            13            14            15 
     11  0.525563D+00
     12  0.000000D+00  0.414972D+00
     13  0.000000D+00  0.000000D+00  0.539803D+00
     14  0.000000D+00  0.000000D+00  0.000000D+00  0.317954D+00
     15  0.000000D+00  0.000000D+00  0.000000D+00 -0.191354D+00  0.387207D+01
     16  0.000000D+00  0.000000D+00  0.000000D+00  0.000000D+00  0.159510D+00
     17  0.000000D+00  0.000000D+00  0.000000D+00 -0.618920D-01  0.474584D+01
     18  0.000000D+00  0.000000D+00  0.000000D+00  0.000000D+00  0.104610D-05
     19  0.000000D+00  0.000000D+00  0.000000D+00  0.000000D+00  0.875002D-02
     20  0.000000D+00  0.000000D+00  0.000000D+00  0.000000D+00  0.533172D-02
     21  0.000000D+00  0.000000D+00  0.000000D+00  0.926352D-01  0.379924D+01
     22  0.000000D+00  0.000000D+00  0.000000D+00 -0.645991D-02  0.571834D-01
     23  0.000000D+00  0.000000D+00  0.000000D+00  0.785986D-02  0.111289D+00
     24  0.000000D+00  0.000000D+00  0.000000D+00  0.000000D+00  0.000000D+00
     25  0.000000D+00  0.000000D+00  0.000000D+00  0.000000D+00  0.000000D+00
     26  0.000000D+00  0.000000D+00  0.000000D+00  0.592830D-02 -0.459606D-02
     27  0.000000D+00  0.000000D+00  0.000000D+00  0.000000D+00 -0.191344D-01
     28  0.000000D+00  0.000000D+00  0.000000D+00  0.126387D+00 -0.116233D+01
     29  0.000000D+00  0.000000D+00  0.000000D+00  0.000000D+00 -0.871559D-03
     30  0.000000D+00  0.000000D+00  0.000000D+00  0.157201D+00 -0.292511D+01
     31  0.000000D+00  0.000000D+00  0.000000D+00  0.000000D+00  0.257399D-03
     32  0.000000D+00  0.000000D+00  0.000000D+00  0.157201D+00 -0.292282D+01
     33  0.000000D+00  0.000000D+00  0.000000D+00  0.541620D-03 -0.202741D-01
     34  0.000000D+00  0.000000D+00  0.000000D+00  0.270111D-02  0.136373D-01
     35  0.000000D+00  0.000000D+00  0.000000D+00  0.000000D+00  0.343328D-01
     36  0.000000D+00  0.000000D+00  0.000000D+00  0.000000D+00  0.000000D+00
               16            17            18            19            20 
     16  0.319590D+00
     17  0.000000D+00  0.835306D+01
     18  0.000000D+00  0.159836D+00  0.319912D+00
     19  0.000000D+00  0.918264D-02  0.000000D+00  0.359363D+00
     20  0.000000D+00  0.363966D-02  0.000000D+00  0.156495D+00  0.379124D+00
     21  0.000000D+00  0.753208D+01  0.000000D+00 -0.390807D-01  0.736383D-01
     22  0.000000D+00  0.107409D-01  0.000000D+00  0.000000D+00  0.000000D+00
     23  0.000000D+00  0.557710D-01  0.000000D+00  0.000000D+00  0.000000D+00
     24  0.000000D+00  0.000000D+00  0.000000D+00  0.000000D+00  0.000000D+00
     25  0.000000D+00  0.000000D+00  0.000000D+00  0.000000D+00  0.000000D+00
     26 -0.135854D-03  0.226618D-01  0.936639D-05  0.317420D-02 -0.437438D-02
     27 -0.441510D-02 -0.185840D-01  0.000000D+00  0.000000D+00  0.000000D+00
     28 -0.331209D-02 -0.146206D+01  0.156285D-04 -0.270559D-02 -0.711371D-02
     29 -0.165604D-02  0.324856D-02  0.147434D-02  0.000000D+00  0.000000D+00
     30  0.000000D+00 -0.430510D+01  0.332125D-02 -0.525406D-02 -0.489457D-02
     31  0.000000D+00  0.154266D-02  0.110708D-02 -0.272738D-01  0.253786D-01
     32  0.000000D+00 -0.430406D+01  0.110708D-02 -0.535971D-01 -0.587218D-01
     33  0.000000D+00  0.267643D+00  0.000000D+00 -0.478335D-02  0.571260D-02
     34  0.000000D+00  0.213050D+00  0.000000D+00 -0.239167D-02  0.285630D-02
     35  0.000000D+00  0.345236D-01  0.000000D+00  0.000000D+00  0.000000D+00
     36  0.000000D+00  0.000000D+00  0.000000D+00  0.000000D+00  0.000000D+00
               21            22            23            24            25 
     21  0.846468D+01
     22 -0.117135D+00  0.307845D+00
     23 -0.102593D+00  0.408706D-01  0.491425D+00
     24  0.000000D+00  0.000000D+00  0.000000D+00  0.250000D+00
     25  0.000000D+00  0.000000D+00  0.000000D+00  0.000000D+00  0.160000D+00
     26  0.395569D-01  0.237762D-01 -0.316188D-01  0.000000D+00  0.000000D+00
     27 -0.165050D-01  0.000000D+00  0.000000D+00  0.000000D+00  0.000000D+00
     28 -0.123117D+01  0.153690D-01  0.783885D-01  0.000000D+00  0.000000D+00
     29  0.000000D+00  0.000000D+00  0.000000D+00  0.000000D+00  0.000000D+00
     30 -0.397432D+01  0.362814D-01  0.130300D+00  0.000000D+00  0.000000D+00
     31  0.779306D-01  0.000000D+00  0.000000D+00  0.000000D+00  0.000000D+00
     32 -0.396931D+01  0.362814D-01  0.130300D+00  0.000000D+00  0.000000D+00
     33  0.390370D+00  0.158976D-01 -0.206435D-02  0.000000D+00  0.000000D+00
     34  0.266922D+00  0.474708D-01 -0.846263D-01  0.000000D+00  0.000000D+00
     35 -0.163209D-01  0.232236D-01  0.415478D-01  0.000000D+00  0.000000D+00
     36  0.000000D+00  0.000000D+00  0.000000D+00  0.000000D+00  0.000000D+00
               26            27            28            29            30 
     26  0.153139D+00
     27  0.147777D-01  0.108367D+00
     28  0.959079D-01 -0.736737D-01  0.134601D+01
     29 -0.393170D-03 -0.203894D-01  0.402093D-01  0.143215D+00
     30  0.335003D-01 -0.243212D-01  0.210127D+01 -0.703569D-01  0.437855D+01
     31  0.248266D-02  0.000000D+00  0.227289D-02 -0.234523D-01  0.483142D-01
     32  0.304536D-01 -0.243212D-01  0.209715D+01 -0.234523D-01  0.428177D+01
     33 -0.353298D-02  0.000000D+00  0.241723D+00  0.000000D+00  0.387618D+00
     34 -0.132942D-01  0.000000D+00  0.196206D+00  0.000000D+00  0.316245D+00
     35  0.000000D+00  0.000000D+00  0.384041D-01  0.000000D+00  0.630970D-01
     36  0.000000D+00  0.000000D+00  0.000000D+00  0.000000D+00  0.000000D+00
               31            32            33            34            35 
     31  0.184181D+00
     32 -0.993892D-01  0.446888D+01
     33 -0.331569D-02  0.388968D+00  0.336971D+00
     34 -0.165784D-02  0.316920D+00  0.244399D+00  0.325587D+00
     35  0.000000D+00  0.630970D-01  0.268084D-01  0.244038D-01  0.658553D-01
     36  0.000000D+00  0.000000D+00  0.000000D+00  0.000000D+00  0.000000D+00
               36 
     36  0.944340D-02
 Leave Link  716 at Tue May 20 11:00:35 2025, MaxMem=  3758096384 cpu:               0.2 elap:               0.0
 (Enter /gpfs/fs1/soft/bebop/software/custom-built/gaussian/16-c.02/g16/l103.exe)

 GradGradGradGradGradGradGradGradGradGradGradGradGradGradGradGradGradGrad
 Berny optimization.
 Search for a local minimum.
 Step number   1 out of a maximum of   46
 All quantities printed in internal units (Hartrees-Bohrs-Radians)
 Second derivative matrix not updated -- first step.
 ITU=  0
     Eigenvalues ---    0.00944   0.03524   0.05304   0.05675   0.07301
     Eigenvalues ---    0.08970   0.13868   0.16000   0.18826   0.19595
     Eigenvalues ---    0.22095   0.25000   0.25778   0.28430   0.30296
     Eigenvalues ---    0.30459   0.34238   0.34263   0.34286   0.34413
[...]
 Alpha virt. eigenvalues --    2.17320   2.25115   2.26876   2.27526   2.30783
 Alpha virt. eigenvalues --    2.40398   2.42803   2.47213   2.48640   2.51877
 Alpha virt. eigenvalues --    2.52237   2.55409   2.61009   2.64759   2.71701
 Alpha virt. eigenvalues --    2.78208   2.84596   2.86017   2.88526   2.92844
 Alpha virt. eigenvalues --    3.01728   3.03537   3.06218   3.15237   3.17975
 Alpha virt. eigenvalues --    3.23916   3.36930   3.44769   3.57699   3.65235
 Alpha virt. eigenvalues --    3.96593
  Beta  occ. eigenvalues --  -19.33862 -19.32146 -10.35441 -10.30187 -10.29681
  Beta  occ. eigenvalues --  -10.29063 -10.28502  -1.24534  -1.02942  -0.91121
  Beta  occ. eigenvalues --   -0.82050  -0.74963  -0.66915  -0.65227  -0.61644
  Beta  occ. eigenvalues --   -0.58784  -0.57037  -0.53805  -0.49931  -0.48100
  Beta  occ. eigenvalues --   -0.45777  -0.44881  -0.43610  -0.38420  -0.36542
  Beta  occ. eigenvalues --   -0.30826
  Beta virt. eigenvalues --    0.01273   0.05297   0.12202   0.14529   0.16696
  Beta virt. eigenvalues --    0.17245   0.18503   0.20902   0.22779   0.23020
  Beta virt. eigenvalues --    0.25115   0.29836   0.36612   0.38974   0.44710
  Beta virt. eigenvalues --    0.46309   0.48718   0.52356   0.53080   0.55788
  Beta virt. eigenvalues --    0.57727   0.59560   0.61578   0.62728   0.65580
  Beta virt. eigenvalues --    0.67114   0.68251   0.72267   0.72876   0.74106
  Beta virt. eigenvalues --    0.74542   0.75949   0.77522   0.79631   0.80583
  Beta virt. eigenvalues --    0.84715   0.85411   0.86565   0.90853   0.92176
  Beta virt. eigenvalues --    0.98725   1.01745   1.04558   1.08677   1.12074
  Beta virt. eigenvalues --    1.17715   1.18491   1.22539   1.31731   1.35868
  Beta virt. eigenvalues --    1.36349   1.41583   1.44902   1.48173   1.51493
  Beta virt. eigenvalues --    1.59421   1.67128   1.69677   1.71086   1.72008
  Beta virt. eigenvalues --    1.74561   1.77195   1.78853   1.83264   1.84799
  Beta virt. eigenvalues --    1.86607   1.88229   1.91042   1.95053   1.96819
  Beta virt. eigenvalues --    2.00823   2.04626   2.05798   2.11254   2.12755
  Beta virt. eigenvalues --    2.16662   2.18055   2.26202   2.27086   2.28521
  Beta virt. eigenvalues --    2.32021   2.41076   2.43861   2.48123   2.48937
  Beta virt. eigenvalues --    2.52324   2.52479   2.56317   2.62148   2.65406
  Beta virt. eigenvalues --    2.72099   2.78649   2.84920   2.86435   2.89167
  Beta virt. eigenvalues --    2.93654   3.01761   3.04054   3.06757   3.15651
  Beta virt. eigenvalues --    3.18185   3.24376   3.37211   3.45049   3.58073
  Beta virt. eigenvalues --    3.65302   3.96697
          Condensed to atoms (all electrons):
               1          2          3          4          5          6
     1  C    4.997197   0.361750   0.406440  -0.050820  -0.047592  -0.069847
     2  C    0.361750   4.988858  -0.046751   0.464793   0.425240  -0.056180
     3  H    0.406440  -0.046751   0.631991   0.006668  -0.003222  -0.000149
     4  C   -0.050820   0.464793   0.006668   4.812798  -0.049199   0.525195
     5  H   -0.047592   0.425240  -0.003222  -0.049199   0.634521   0.009528
     6  C   -0.069847  -0.056180  -0.000149   0.525195   0.009528   5.022524
     7  H    0.008992  -0.046389  -0.000308   0.419909  -0.007176  -0.047621
     8  H   -0.007717  -0.024506   0.000450  -0.001756  -0.000253   0.376345
     9  H    0.003217   0.009492  -0.000016  -0.021731  -0.000183   0.378050
    10  C    0.521986  -0.052214  -0.026929  -0.033884   0.008853  -0.042658
    11  H   -0.035671   0.007871  -0.011579   0.003024  -0.000248  -0.005026
    12  O   -0.046154  -0.002344   0.002749  -0.007058  -0.000000  -0.028858
    13  O    0.003933  -0.000551  -0.000059   0.000555   0.000010   0.003393
    14  H   -0.000412   0.000047   0.000000   0.000032  -0.000002  -0.000570
               7          8          9         10         11         12
     1  C    0.008992  -0.007717   0.003217   0.521986  -0.035671  -0.046154
     2  C   -0.046389  -0.024506   0.009492  -0.052214   0.007871  -0.002344
     3  H   -0.000308   0.000450  -0.000016  -0.026929  -0.011579   0.002749
     4  C    0.419909  -0.001756  -0.021731  -0.033884   0.003024  -0.007058
     5  H   -0.007176  -0.000253  -0.000183   0.008853  -0.000248  -0.000000
     6  C   -0.047621   0.376345   0.378050  -0.042658  -0.005026  -0.028858
     7  H    0.641765   0.005081  -0.010806   0.002248   0.000001  -0.000408
     8  H    0.005081   0.602478  -0.036062   0.015846   0.005307  -0.011850
     9  H   -0.010806  -0.036062   0.641699   0.000643  -0.000215  -0.000231
    10  C    0.002248   0.015846   0.000643   4.888619   0.392024   0.283713
    11  H    0.000001   0.005307  -0.000215   0.392024   0.624945  -0.036300
    12  O   -0.000408  -0.011850  -0.000231   0.283713  -0.036300   7.966563
    13  O    0.000007   0.000352  -0.000009  -0.052170   0.008952   0.101389
    14  H   -0.000001   0.000155  -0.000001   0.002353   0.001774  -0.017760
              13         14
     1  C    0.003933  -0.000412
     2  C   -0.000551   0.000047
     3  H   -0.000059   0.000000
     4  C    0.000555   0.000032
     5  H    0.000010  -0.000002
     6  C    0.003393  -0.000570
     7  H    0.000007  -0.000001
     8  H    0.000352   0.000155
     9  H   -0.000009  -0.000001
    10  C   -0.052170   0.002353
    11  H    0.008952   0.001774
    12  O    0.101389  -0.017760
    13  O    7.765496   0.312591
    14  H    0.312591   0.501518
          Atomic-Atomic Spin Densities.
               1          2          3          4          5          6
     1  C   -0.164318  -0.048607   0.003942   0.011766   0.000414  -0.014697
     2  C   -0.048607   0.670573  -0.007492  -0.008743   0.006122  -0.023219
     3  H    0.003942  -0.007492   0.021781   0.000756  -0.000119  -0.001830
     4  C    0.011766  -0.008743   0.000756  -0.285499   0.000395  -0.015757
     5  H    0.000414   0.006122  -0.000119   0.000395  -0.033271  -0.000294
     6  C   -0.014697  -0.023219  -0.001830  -0.015757  -0.000294   0.833278
     7  H   -0.000182  -0.003988  -0.000052   0.002855   0.000121  -0.002523
     8  H    0.004222  -0.000809   0.000304   0.001778  -0.000015  -0.006588
     9  H   -0.000062  -0.000414   0.000020  -0.000762   0.000012  -0.000700
    10  C    0.038752  -0.019367  -0.003318   0.003247  -0.000501  -0.080210
    11  H   -0.000956   0.000014   0.000432  -0.000113   0.000013  -0.000332
    12  O    0.000368   0.003838   0.000349   0.003675  -0.000011  -0.030412
    13  O    0.000010  -0.000109  -0.000003  -0.000128  -0.000000   0.001726
    14  H   -0.000011  -0.000023  -0.000004  -0.000001   0.000000   0.000651
               7          8          9         10         11         12
     1  C   -0.000182   0.004222  -0.000062   0.038752  -0.000956   0.000368
     2  C   -0.003988  -0.000809  -0.000414  -0.019367   0.000014   0.003838
     3  H   -0.000052   0.000304   0.000020  -0.003318   0.000432   0.000349
     4  C    0.002855   0.001778  -0.000762   0.003247  -0.000113   0.003675
     5  H    0.000121  -0.000015   0.000012  -0.000501   0.000013  -0.000011
     6  C   -0.002523  -0.006588  -0.000700  -0.080210  -0.000332  -0.030412
     7  H    0.023761  -0.000495  -0.000520  -0.000585  -0.000002  -0.000168
     8  H   -0.000495  -0.031877   0.003198   0.004010   0.000014   0.001849
     9  H   -0.000520   0.003198  -0.029987   0.002390   0.000020   0.000006
    10  C   -0.000585   0.004010   0.002390   0.349285   0.002302  -0.020945
    11  H   -0.000002   0.000014   0.000020   0.002302  -0.017030   0.000642
    12  O   -0.000168   0.001849   0.000006  -0.020945   0.000642   0.047864
    13  O    0.000003  -0.000108  -0.000003  -0.001421   0.000508  -0.003865
    14  H    0.000002  -0.000030  -0.000035   0.000337  -0.000088  -0.000600
              13         14
     1  C    0.000010  -0.000011
     2  C   -0.000109  -0.000023
     3  H   -0.000003  -0.000004
     4  C   -0.000128  -0.000001
     5  H   -0.000000   0.000000
     6  C    0.001726   0.000651
     7  H    0.000003   0.000002
     8  H   -0.000108  -0.000030
     9  H   -0.000003  -0.000035
    10  C   -0.001421   0.000337
    11  H    0.000508  -0.000088
    12  O   -0.003865  -0.000600
    13  O    0.015981   0.000001
    14  H    0.000001  -0.000233
 Mulliken charges and spin densities:
               1          2
     1  C   -0.045302  -0.169359
     2  C   -0.029115   0.567776
     3  H    0.040715   0.014767
     4  C   -0.068527  -0.286531
     5  H    0.029723  -0.027134
     6  C   -0.064125   0.659093
     7  H    0.034705   0.018228
     8  H    0.076132  -0.024546
     9  H    0.036151  -0.026838
    10  C    0.091570   0.273977
    11  H    0.045139  -0.014576
    12  O   -0.203452   0.002589
    13  O   -0.143889   0.012589
    14  H    0.200275  -0.000033
 Sum of Mulliken charges =  -0.00000   1.00000
 Mulliken charges and spin densities with hydrogens summed into heavy atoms:
               1          2
     1  C   -0.004587  -0.154592
     2  C    0.000608   0.540642
     4  C   -0.033822  -0.268303
     6  C    0.048158   0.607709
    10  C    0.136709   0.259400
    12  O   -0.203452   0.002589
    13  O    0.056385   0.012556
 Electronic spatial extent (au):  <R**2>=            739.5145
 Charge=             -0.0000 electrons
 Dipole moment (field-independent basis, Debye):
    X=             -0.7120    Y=              0.9061    Z=              1.0229  Tot=              1.5408
 Quadrupole moment (field-independent basis, Debye-Ang):
   XX=            -37.5041   YY=            -38.5428   ZZ=            -41.9425
   XY=             -4.7746   XZ=             -3.1576   YZ=             -1.6477
 Traceless Quadrupole moment (field-independent basis, Debye-Ang):
   XX=              1.8257   YY=              0.7870   ZZ=             -2.6127
   XY=             -4.7746   XZ=             -3.1576   YZ=             -1.6477
 Octapole moment (field-independent basis, Debye-Ang**2):
  XXX=            -33.4606  YYY=              3.5348  ZZZ=             -0.8216  XYY=             -7.8095
  XXY=             12.5395  XXZ=             -5.7537  XZZ=             -6.0011  YZZ=              0.2133
  YYZ=              0.2033  XYZ=              0.5029
 Hexadecapole moment (field-independent basis, Debye-Ang**3):
 XXXX=           -518.0958 YYYY=           -247.1704 ZZZZ=           -106.2174 XXXY=            -50.1279
 XXXZ=            -11.7629 YYYX=            -11.6034 YYYZ=             -8.6806 ZZZX=              1.3258
 ZZZY=             -2.9320 XXYY=           -122.4791 XXZZ=           -113.5719 YYZZ=            -59.8645
 XXYZ=             -6.3207 YYXZ=             -1.7986 ZZXY=             -1.6065
 N-N= 2.961110367100D+02 E-N=-1.396920335265D+03  KE= 3.417549210485D+02
                          Isotropic Fermi Contact Couplings
        Atom                 a.u.       MegaHertz       Gauss      10(-4) cm-1
     1  C(13)             -0.05003     -56.24114     -20.06824     -18.76003
     2  C(13)              0.10096     113.50212      40.50038      37.86023
     3  H(1)               0.00594      26.57211       9.48159       8.86350
     4  C(13)             -0.07761     -87.25061     -31.13319     -29.10367
     5  H(1)              -0.00849     -37.94499     -13.53971     -12.65708
     6  C(13)              0.16569     186.26591      66.46431      62.13162
     7  H(1)               0.00700      31.29179      11.16569      10.43782
     8  H(1)              -0.00906     -40.50939     -14.45476     -13.51248
     9  H(1)              -0.00711     -31.80091     -11.34736     -10.60764
    10  C(13)              0.05830      65.54373      23.38763      21.86304
    11  H(1)              -0.00454     -20.29185      -7.24064      -6.76863
    12  O(17)              0.13358     -80.97312     -28.89322     -27.00973
    13  O(17)             -0.00055       0.33102       0.11812       0.11042
    14  H(1)              -0.00019      -0.83997      -0.29972      -0.28018
 --------------------------------------------------------
       Center         ----  Spin Dipole Couplings  ----
                      3XX-RR        3YY-RR        3ZZ-RR
 --------------------------------------------------------
     1   Atom        0.044641      0.015766     -0.060406
     2   Atom       -0.035958     -0.278590      0.314548
     3   Atom        0.004070      0.002583     -0.006653
     4   Atom       -0.066508      0.109285     -0.042777
     5   Atom        0.016915     -0.022048      0.005133
     6   Atom        0.422979     -0.240237     -0.182742
     7   Atom       -0.001711      0.004230     -0.002519
     8   Atom       -0.020829     -0.019149      0.039978
     9   Atom       -0.009548      0.048468     -0.038920
    10   Atom       -0.112866      0.053029      0.059837
    11   Atom       -0.000111     -0.006809      0.006920
    12   Atom       -0.036649     -0.006057      0.042706
    13   Atom        0.044416     -0.018037     -0.026379
    14   Atom        0.005215     -0.000354     -0.004860
 --------------------------------------------------------
                        XY            XZ            YZ
 --------------------------------------------------------
     1   Atom       -0.032578     -0.059240     -0.066118
     2   Atom       -0.051943      0.376927     -0.065975
     3   Atom       -0.001605     -0.005083      0.000499
     4   Atom       -0.011007     -0.170669      0.013075
     5   Atom       -0.029030     -0.011015      0.014721
     6   Atom        0.271181      0.354026      0.116240
     7   Atom       -0.005830     -0.006198      0.007273
     8   Atom        0.014561      0.004970     -0.031765
     9   Atom       -0.008635      0.016568      0.002236
    10   Atom        0.116430      0.104771      0.222906
    11   Atom        0.017819     -0.015510     -0.003450
    12   Atom       -0.021417     -0.011911      0.072371
    13   Atom        0.033702      0.014617      0.003873
    14   Atom       -0.002885      0.001692      0.000065
 --------------------------------------------------------


 ---------------------------------------------------------------------------------
              Anisotropic Spin Dipole Couplings in Principal Axis System
 ---------------------------------------------------------------------------------

       Atom             a.u.   MegaHertz   Gauss  10(-4) cm-1        Axes

              Baa    -0.1255   -16.838    -6.008    -5.617  0.3693  0.4625  0.8061
     1 C(13)  Bbb     0.0539     7.231     2.580     2.412 -0.0693  0.8787 -0.4724
              Bcc     0.0716     9.608     3.428     3.205  0.9267 -0.1186 -0.3565
 
              Baa    -0.2914   -39.107   -13.954   -13.045  0.4525  0.8721 -0.1865
     2 C(13)  Bbb    -0.2718   -36.478   -13.016   -12.168  0.7128 -0.4793 -0.5121
              Bcc     0.5633    75.585    26.971    25.212  0.5360 -0.0988  0.8384
 
              Baa    -0.0087    -4.632    -1.653    -1.545  0.3716  0.0118  0.9283
     3 H(1)   Bbb     0.0019     1.021     0.364     0.341  0.3412  0.9282 -0.1483
              Bcc     0.0068     3.611     1.288     1.204  0.8634 -0.3719 -0.3409
 
              Baa    -0.2257   -30.290   -10.808   -10.104  0.7311 -0.0026  0.6822
     4 C(13)  Bbb     0.0954    12.805     4.569     4.271  0.4316  0.7762 -0.4596
              Bcc     0.1303    17.485     6.239     5.832 -0.5284  0.6305  0.5686
 
              Baa    -0.0390   -20.830    -7.433    -6.948  0.4224  0.8863 -0.1900
     5 H(1)   Bbb    -0.0014    -0.738    -0.263    -0.246  0.4724 -0.0363  0.8806
              Bcc     0.0404    21.568     7.696     7.194  0.7736 -0.4617 -0.4340
 
              Baa    -0.3496   -46.906   -16.737   -15.646 -0.4964  0.4292  0.7545
     6 C(13)  Bbb    -0.3309   -44.410   -15.847   -14.814 -0.0601  0.8501 -0.5232
              Bcc     0.6805    91.316    32.584    30.460  0.8660  0.3051  0.3962
 
              Baa    -0.0086    -4.594    -1.639    -1.532  0.5506 -0.2080  0.8085
     7 H(1)   Bbb    -0.0048    -2.572    -0.918    -0.858  0.6809  0.6722 -0.2908
              Bcc     0.0134     7.166     2.557     2.390 -0.4830  0.7105  0.5117
 
              Baa    -0.0434   -23.158    -8.263    -7.725 -0.5622  0.7611  0.3235
     8 H(1)   Bbb    -0.0104    -5.563    -1.985    -1.856  0.8268  0.5090  0.2393
              Bcc     0.0538    28.721    10.249     9.580 -0.0175 -0.4020  0.9155
 
              Baa    -0.0467   -24.919    -8.892    -8.312 -0.4180 -0.0592  0.9065
     9 H(1)   Bbb    -0.0030    -1.612    -0.575    -0.538  0.8969  0.1321  0.4221
              Bcc     0.0497    26.531     9.467     8.850 -0.1447  0.9895 -0.0021
 
              Baa    -0.1760   -23.612    -8.426    -7.876  0.6880 -0.6547  0.3132
    10 C(13)  Bbb    -0.1581   -21.218    -7.571    -7.077 -0.6462 -0.3562  0.6750
              Bcc     0.3341    44.830    15.996    14.954  0.3303  0.6667  0.6681
 
              Baa    -0.0237   -12.625    -4.505    -4.211  0.6884 -0.6719  0.2733
    11 H(1)   Bbb    -0.0022    -1.180    -0.421    -0.394  0.2991  0.6062  0.7369
              Bcc     0.0259    13.805     4.926     4.605  0.6608  0.4256 -0.6182
 
              Baa    -0.0628     4.543     1.621     1.515  0.4126  0.7722 -0.4832
    12 O(17)  Bbb    -0.0356     2.574     0.918     0.858  0.8962 -0.2493  0.3669
              Bcc     0.0984    -7.117    -2.539    -2.374 -0.1629  0.5844  0.7949
 
              Baa    -0.0338     2.446     0.873     0.816 -0.4243  0.8047  0.4152
    13 O(17)  Bbb    -0.0279     2.016     0.719     0.673  0.0275 -0.4468  0.8942
              Bcc     0.0617    -4.463    -1.592    -1.489  0.9051  0.3908  0.1674
 
              Baa    -0.0052    -2.777    -0.991    -0.926 -0.1934 -0.1280  0.9727
    14 H(1)   Bbb    -0.0014    -0.768    -0.274    -0.256  0.3494  0.9175  0.1902
              Bcc     0.0066     3.545     1.265     1.183  0.9168 -0.3766  0.1327
 

 ---------------------------------------------------------------------------------

 No NMR shielding tensors so no spin-rotation constants.
 Leave Link  601 at Tue May 20 11:02:48 2025, MaxMem=  3758096384 cpu:               0.8 elap:               0.2
 (Enter /gpfs/fs1/soft/bebop/software/custom-built/gaussian/16-c.02/g16/l9999.exe)
 Unable to Open any file for archive entry.
 1\1\GINC-CSED-0031\POpt\UwB97XD\def2SVP\C5H7O2(2)\COPAN\20-May-2025\1\
 \#P wb97xd/def2svp # SCF=(xqc) # POpt=() # int=ultrafine\\comment:\\0,
 2\C\C,1,R1\H,1,R2,2,A2\C,2,R3,1,A3,3,D3,0\H,2,R4,1,A4,4,D4,0\C,4,R5,2,
 A5,1,D5,0\H,4,R6,2,A6,6,D6,0\H,6,R7,4,A7,2,D7,0\H,6,R8,4,A8,8,D8,0\C,6
 ,R9,4,A9,8,D9,0\H,10,R10,6,A10,4,D10,0\O,10,R11,6,A11,11,D11,0\O,12,R1
 2,10,A12,1,D12,0\H,13,R13,12,A13,10,D13,0\\R1=1.42353526\R2=1.093498\R
 3=1.39939761\R4=1.09036006\R5=1.38434239\R6=1.09474342\R7=1.0865673\R8
 =1.09513296\R10=1.09580337\R11=1.36639533\R12=1.42878609\R13=0.9670670
 1\A2=123.18125326\A3=111.53256823\A4=124.36296725\A5=119.12333878\A6=1
 21.25250285\A7=124.35278804\A8=118.42899378\A9=88.87599171\A10=130.104
 13974\A11=72.17859717\A12=106.65008555\A13=99.60350627\D3=218.93163947
 \D4=176.43742588\D5=10.92028717\D6=182.8639694\D7=29.30704378\D8=161.0
 3065463\D9=305.91096135\D10=158.46311933\D11=101.89202242\D12=138.5985
 4748\D13=138.85570233\R9=2.3\\Version=ES64L-G16RevC.01\State=2-A\HF=-3
 44.579957\S2=0.800617\S2-1=0.\S2A=0.751348\RMSD=7.305e-09\RMSF=1.420e-
 02\Dipole=-0.3268941,-0.4558038,-0.2299516\Quadrupole=3.6529643,-3.810
 6537,0.1576895,1.9386991,1.1319957,1.8992453\PG=C01 [X(C5H7O2)]\\@
 The archive entry for this job was punched.


 What some people mistake for the high cost
 of living is really the cost of living high.
                              -- Doug Larson
 Job cpu time:       0 days  0 hours 12 minutes 47.6 seconds.
 Elapsed time:       0 days  0 hours  2 minutes 28.1 seconds.
 File lengths (MBytes):  RWF=     15 Int=      0 D2E=      0 Chk=      3 Scr=      1
 Normal termination of Gaussian 16 at Tue May 20 11:02:48 2025.
