 Entering Gaussian System, Link 0=g16
 Input=run.inp_2.23
 Output=run.out_2.23
 Initial command:
 /gpfs/fs1/soft/bebop/software/custom-built/gaussian/16-c.02/g16/l1.exe "/scratch/Gau-2170846.inp" -scrdir="/scratch/"
 Default CPUs for threads: 0-35
 Default is to use a total of  36 processors:
                               36 via shared-memory
                                1 via Linda
 Entering Link 1 = /gpfs/fs1/soft/bebop/software/custom-built/gaussian/16-c.02/g16/l1.exe PID=   2170847.
  
 Copyright (c) 1988-2019, Gaussian, Inc.  All Rights Reserved.
  
 This is part of the Gaussian(R) 16 program.  It is based on
 the Gaussian(R) 09 system (copyright 2009, Gaussian, Inc.),
 the Gaussian(R) 03 system (copyright 2003, Gaussian, Inc.),
 the Gaussian(R) 98 system (copyright 1998, Gaussian, Inc.),
 the Gaussian(R) 94 system (copyright 1995, Gaussian, Inc.),
 the Gaussian 92(TM) system (copyright 1992, Gaussian, Inc.),
 the Gaussian 90(TM) system (copyright 1990, Gaussian, Inc.),
 the Gaussian 88(TM) system (copyright 1988, Gaussian, Inc.),
 the Gaussian 86(TM) system (copyright 1986, Carnegie Mellon
 University), and the Gaussian 82(TM) system (copyright 1983,
 Carnegie Mellon University). Gaussian is a federally registered
 trademark of Gaussian, Inc.
  
 This software contains proprietary and confidential information,
 including trade secrets, belonging to Gaussian, Inc.
  
 This software is provided under written license and may be
 used, copied, transmitted, or stored only in accord with that
 written license.
  
 The following legend is applicable only to US Government
 contracts under FAR:
  
                    RESTRICTED RIGHTS LEGEND
  
 Use, reproduction and disclosure by the US Government is
 subject to restrictions as set forth in subparagraphs (a)
 and (c) of the Commercial Computer Software - Restricted
 Rights clause in FAR 52.227-19.
  
 Gaussian, Inc.
 340 Quinnipiac St., Bldg. 40, Wallingford CT 06492
  
  
 ---------------------------------------------------------------
 Warning -- This program may not be used in any manner that
 competes with the business of Gaussian, Inc. or will provide
 assistance to any competitor of Gaussian, Inc.  The licensee
 of this program is prohibited from giving any competitor of
 Gaussian, Inc. access to this program.  By using this program,
 the user acknowledges that Gaussian, Inc. is engaged in the
 business of creating and licensing software in the field of
 computational chemistry and represents and warrants to the
 licensee that it is not a competitor of Gaussian, Inc. and that
 it will not use this program in any manner prohibited above.
 ---------------------------------------------------------------
  

 Cite this work as:
 Gaussian 16, Revision C.01,
 M. J. Frisch, G. W. Trucks, H. B. Schlegel, G. E. Scuseria, 
 M. A. Robb, J. R. Cheeseman, G. Scalmani, V. Barone, 
 G. A. Petersson, H. Nakatsuji, X. Li, M. Caricato, A. V. Marenich, 
 J. Bloino, B. G. Janesko, R. Gomperts, B. Mennucci, H. P. Hratchian, 
 J. V. Ortiz, A. F. Izmaylov, J. L. Sonnenberg, D. Williams-Young, 
 F. Ding, F. Lipparini, F. Egidi, J. Goings, B. Peng, A. Petrone, 
 T. Henderson, D. Ranasinghe, V. G. Zakrzewski, J. Gao, N. Rega, 
 G. Zheng, W. Liang, M. Hada, M. Ehara, K. Toyota, R. Fukuda, 
 J. Hasegawa, M. Ishida, T. Nakajima, Y. Honda, O. Kitao, H. Nakai, 
 T. Vreven, K. Throssell, J. A. Montgomery, Jr., J. E. Peralta, 
 F. Ogliaro, M. J. Bearpark, J. J. Heyd, E. N. Brothers, K. N. Kudin, 
 V. N. Staroverov, T. A. Keith, R. Kobayashi, J. Normand, 
 K. Raghavachari, A. P. Rendell, J. C. Burant, S. S. Iyengar, 
 J. Tomasi, M. Cossi, J. M. Millam, M. Klene, C. Adamo, R. Cammi, 
 J. W. Ochterski, R. L. Martin, K. Morokuma, O. Farkas, 
 J. B. Foresman, and D. J. Fox, Gaussian, Inc., Wallingford CT, 2019.
 
 ******************************************
 Gaussian 16:  ES64L-G16RevC.01  3-Jul-2019
                20-May-2025 
 ******************************************
 %mem=28GB
 %NProcShared=6
 Will use up to    6 processors via shared memory.
 -------------------------------------------------------
 #P wb97xd/def2svp # SCF=(xqc) # POpt=() # int=ultrafine
 -------------------------------------------------------
 1/10=7,26=4,38=1/1,3;
 2/12=2,17=6,18=5,29=3,40=1/2;
 3/5=43,7=101,11=2,25=1,30=1,71=1,74=-58,75=-5/1,2,3;
 4//1;
 5/5=2,8=3,13=1,38=5/2,8;
 6/7=2,8=2,9=2,10=2,28=1/1;
 7/29=1/1,2,3,16;
 1/10=7,26=4/3(2);
 2/29=3/2;
 99//99;
 2/29=3/2;
 3/5=43,7=101,11=2,25=1,30=1,71=1,74=-58,75=-5/1,2,3;
 4/5=5,16=3,69=1/1;
 5/5=2,8=3,13=1,38=5/2,8;
 7//1,2,3,16;
 1/26=4/3(-5);
 2/29=3/2;
 6/7=2,8=2,9=2,10=2,19=2,28=1/1;
 99/9=1/99;
 Leave Link    1 at Tue May 20 11:49:18 2025, MaxMem=  3758096384 cpu:               0.2 elap:               0.0
 (Enter /gpfs/fs1/soft/bebop/software/custom-built/gaussian/16-c.02/g16/l101.exe)
 --------
 comment:
 --------
 Symbolic Z-matrix:
 Charge =  0 Multiplicity = 2
 C
 C                    1    R1
 H                    1    R2       2    A2
 C                    2    R3       1    A3       3    D3       0
 H                    2    R4       1    A4       4    D4       0
 C                    4    R5       2    A5       1    D5       0
 H                    4    R6       2    A6       6    D6       0
 H                    6    R7       4    A7       2    D7       0
 H                    6    R8       4    A8       8    D8       0
 C                    6    R9       4    A9       8    D9       0
 H                    10   R10      6    A10      4    D10      0
 O                    10   R11      6    A11      11   D11      0
 O                    12   R12      10   A12      1    D12      0
 H                    13   R13      12   A13      10   D13      0
       Variables:
  R1                    1.4316                   
  R2                    1.0935                   
  R3                    1.3898                   
  R4                    1.0902                   
  R5                    1.3973                   
  R6                    1.095                    
  R7                    1.0877                   
  R8                    1.0952                   
  R10                   1.0967                   
  R11                   1.3709                   
  R12                   1.4319                   
  R13                   0.967                    
  A2                  123.4191                   
  A3                  110.7072                   
  A4                  124.939                    
  A5                  119.087                    
  A6                  121.3246                   
  A7                  123.9798                   
  A8                  118.2111                   
  A9                   89.3244                   
  A10                 127.0112                   
  A11                  74.2837                   
  A12                 106.2101                   
  A13                  99.6105                   
  D3                  223.2141                   
  D4                  177.0413                   
  D5                    8.6394                   
  D6                  183.3412                   
  D7                   35.7036                   
  D8                  157.8565                   
  D9                  300.4557                   
  D10                 158.3389                   
  D11                 103.7546                   
  D12                 130.9388                   
  D13                 136.8712                   
       Constants:
  R9                    2.23                     
 
 ITRead=  0  0  0  0  0  0  0  0  0  0  0  0  0  0
 MicOpt= -1 -1 -1 -1 -1 -1 -1 -1 -1 -1 -1 -1 -1 -1
 NAtoms=     14 NQM=       14 NQMF=       0 NMMI=      0 NMMIF=      0
                NMic=       0 NMicF=      0.
                    Isotopes and Nuclear Properties:
 (Nuclear quadrupole moments (NQMom) in fm**2, nuclear magnetic moments (NMagM)
  in nuclear magnetons)

  Atom         1           2           3           4           5           6           7           8           9          10
 IAtWgt=          12          12           1          12           1          12           1           1           1          12
 AtmWgt=  12.0000000  12.0000000   1.0078250  12.0000000   1.0078250  12.0000000   1.0078250   1.0078250   1.0078250  12.0000000
 NucSpn=           0           0           1           0           1           0           1           1           1           0
 AtZEff=  -0.0000000  -0.0000000  -0.0000000  -0.0000000  -0.0000000  -0.0000000  -0.0000000  -0.0000000  -0.0000000  -0.0000000
 NQMom=    0.0000000   0.0000000   0.0000000   0.0000000   0.0000000   0.0000000   0.0000000   0.0000000   0.0000000   0.0000000
 NMagM=    0.0000000   0.0000000   2.7928460   0.0000000   2.7928460   0.0000000   2.7928460   2.7928460   2.7928460   0.0000000
 AtZNuc=   6.0000000   6.0000000   1.0000000   6.0000000   1.0000000   6.0000000   1.0000000   1.0000000   1.0000000   6.0000000

  Atom        11          12          13          14
 IAtWgt=           1          16          16           1
 AtmWgt=   1.0078250  15.9949146  15.9949146   1.0078250
 NucSpn=           1           0           0           1
 AtZEff=  -0.0000000  -0.0000000  -0.0000000  -0.0000000
 NQMom=    0.0000000   0.0000000   0.0000000   0.0000000
 NMagM=    2.7928460   0.0000000   0.0000000   2.7928460
 AtZNuc=   1.0000000   8.0000000   8.0000000   1.0000000
 Leave Link  101 at Tue May 20 11:49:18 2025, MaxMem=  3758096384 cpu:               0.6 elap:               0.1
 (Enter /gpfs/fs1/soft/bebop/software/custom-built/gaussian/16-c.02/g16/l103.exe)

 GradGradGradGradGradGradGradGradGradGradGradGradGradGradGradGradGradGrad
 Berny optimization.
 Initialization pass.
                       ----------------------------
                       !    Initial Parameters    !
                       ! (Angstroms and Degrees)  !
 ----------------------                            ----------------------
 !      Name          Value   Derivative information (Atomic Units)     !
 ------------------------------------------------------------------------
 !       R1          1.4316   estimate D2E/DX2                          !
 !       R2          1.0935   estimate D2E/DX2                          !
 !       R3          1.3898   estimate D2E/DX2                          !
 !       R4          1.0902   estimate D2E/DX2                          !
 !       R5          1.3973   estimate D2E/DX2                          !
 !       R6          1.095    estimate D2E/DX2                          !
 !       R7          1.0877   estimate D2E/DX2                          !
 !       R8          1.0952   estimate D2E/DX2                          !
 !       R10         1.0967   estimate D2E/DX2                          !
 !       R11         1.3709   estimate D2E/DX2                          !
 !       R12         1.4319   estimate D2E/DX2                          !
 !       R13         0.967    estimate D2E/DX2                          !
 !       A2        123.4191   estimate D2E/DX2                          !
 !       A3        110.7072   estimate D2E/DX2                          !
 !       A4        124.939    estimate D2E/DX2                          !
 !       A5        119.087    estimate D2E/DX2                          !
 !       A6        121.3246   estimate D2E/DX2                          !
 !       A7        123.9798   estimate D2E/DX2                          !
 !       A8        118.2111   estimate D2E/DX2                          !
 !       A9         89.3244   estimate D2E/DX2                          !
 !       A10       127.0112   estimate D2E/DX2                          !
 !       A11        74.2837   estimate D2E/DX2                          !
 !       A12       106.2101   estimate D2E/DX2                          !
 !       A13        99.6105   estimate D2E/DX2                          !
 !       D3        223.2141   estimate D2E/DX2                          !
 !       D4        177.0413   estimate D2E/DX2                          !
 !       D5          8.6394   estimate D2E/DX2                          !
 !       D6        183.3412   estimate D2E/DX2                          !
 !       D7         35.7036   estimate D2E/DX2                          !
 !       D8        157.8565   estimate D2E/DX2                          !
 !       D9        300.4557   estimate D2E/DX2                          !
 !       D10       158.3389   estimate D2E/DX2                          !
 !       D11       103.7546   estimate D2E/DX2                          !
 !       D12       130.9388   estimate D2E/DX2                          !
 !       D13       136.8712   estimate D2E/DX2                          !
 !       R9          2.23     Frozen                                    !
 ------------------------------------------------------------------------
 Trust Radius=3.00D-01 FncErr=1.00D-07 GrdErr=1.00D-06 EigMax=2.50D+02 EigMin=1.00D-04
 Number of steps in this run=     46 maximum allowed number of steps=    100.
 GradGradGradGradGradGradGradGradGradGradGradGradGradGradGradGradGradGrad

 Leave Link  103 at Tue May 20 11:49:18 2025, MaxMem=  3758096384 cpu:               0.1 elap:               0.0
 (Enter /gpfs/fs1/soft/bebop/software/custom-built/gaussian/16-c.02/g16/l202.exe)
 ---------------------------------------------------------------------------------------------------
                            Z-MATRIX (ANGSTROMS AND DEGREES)
   CD    Cent   Atom    N1       Length/X        N2       Alpha/Y        N3        Beta/Z          J
 ---------------------------------------------------------------------------------------------------
      1      1  C 
      2      2  C        1   1.431600(     1)
      3      3  H        1   1.093500(     2)      2  123.419(    14)
      4      4  C        2   1.389800(     3)      1  110.707(    15)      3  223.214(    26)      0
      5      5  H        2   1.090200(     4)      1  124.939(    16)      4  177.041(    27)      0
      6      6  C        4   1.397300(     5)      2  119.087(    17)      1    8.639(    28)      0
      7      7  H        4   1.095000(     6)      2  121.325(    18)      6  183.341(    29)      0
      8      8  H        6   1.087700(     7)      4  123.980(    19)      2   35.704(    30)      0
      9      9  H        6   1.095200(     8)      4  118.211(    20)      8  157.857(    31)      0
     10     10  C        6   2.230000(     9)      4   89.324(    21)      8  300.456(    32)      0
     11     11  H       10   1.096700(    10)      6  127.011(    22)      4  158.339(    33)      0
     12     12  O       10   1.370900(    11)      6   74.284(    23)     11  103.755(    34)      0
     13     13  O       12   1.431900(    12)     10  106.210(    24)      1  130.939(    35)      0
     14     14  H       13   0.967000(    13)     12   99.611(    25)     10  136.871(    36)      0
 ---------------------------------------------------------------------------------------------------
                         Z-Matrix orientation:                         
 ---------------------------------------------------------------------
 Center     Atomic      Atomic             Coordinates (Angstroms)
 Number     Number       Type             X           Y           Z
 ---------------------------------------------------------------------
      1          6           0        0.000000    0.000000    0.000000
      2          6           0        0.000000    0.000000    1.431600
      3          1           0        0.912705    0.000000   -0.602255
      4          6           0       -0.947454   -0.890157    1.923023
      5          1           0        0.682050    0.577508    2.055962
      6          6           0       -1.596035   -1.751195    1.033977
      7          1           0       -1.232694   -0.891726    2.980217
      8          1           0       -1.119250   -2.200185    0.165544
      9          1           0       -2.487926   -2.281431    1.384466
     10          6           0       -1.164420   -0.322663   -0.623100
     11          1           0       -1.132808   -0.546483   -1.696252
     12          8           0       -2.451503   -0.059190   -0.231478
     13          8           0       -3.109038    0.503906   -1.372052
     14          1           0       -3.950782    0.030438   -1.323215
 ---------------------------------------------------------------------
                    Distance matrix (angstroms):
                    1          2          3          4          5
     1  C    0.000000
     2  C    1.431600   0.000000
     3  H    1.093500   2.229259   0.000000
     4  C    2.321220   1.389800   3.260306   0.000000
     5  H    2.241805   1.090200   2.729988   2.197043   0.000000
     6  C    2.585173   2.402523   3.469541   1.397300   3.414233
     7  H    3.346103   2.170927   4.269897   1.095000   2.584404
     8  H    2.474054   2.774245   3.091792   2.198732   3.812341
     9  H    3.648486   3.375933   4.551514   2.144468   4.321249
    10  C    1.359500   2.383648   2.102141   2.617607   3.375964
    11  H    2.111675   3.371255   2.383191   3.640277   4.316964
    12  O    2.463118   2.962971   3.385096   2.755820   3.931529
    13  O    3.435486   4.216693   4.125643   4.180117   5.111658
    14  H    4.166593   4.816493   4.916728   4.517248   5.760317
                    6          7          8          9         10
     6  C    0.000000
     7  H    2.158369   0.000000
     8  H    1.087700   3.106014   0.000000
     9  H    1.095200   2.460348   1.834570   0.000000
    10  C    2.230000   3.648615   2.036932   3.101413   0.000000
    11  H    3.019944   4.690260   2.490221   3.786451   1.096700
    12  O    2.279492   3.534628   2.552721   2.747900   1.370900
    13  O    3.628172   4.940719   3.692636   3.967653   2.241804
    14  H    3.778280   5.172805   3.899955   3.849184   2.894590
                   11         12         13         14
    11  H    0.000000
    12  O    2.030264   0.000000
    13  O    2.261395   1.431900   0.000000
    14  H    2.900512   1.856814   0.967000   0.000000
 Stoichiometry    C5H7O2(2)
 Framework group  C1[X(C5H7O2)]
 Deg. of freedom    36
 Full point group                 C1      NOp   1
 Largest Abelian subgroup         C1      NOp   1
 Largest concise Abelian subgroup C1      NOp   1
                         Standard orientation:                         
 ---------------------------------------------------------------------
 Center     Atomic      Atomic             Coordinates (Angstroms)
 Number     Number       Type             X           Y           Z
 ---------------------------------------------------------------------
      1          6           0        0.676137   -1.294595    0.257231
      2          6           0        1.701919   -0.643755   -0.500170
      3          1           0        0.845798   -2.198707    0.848451
      4          6           0        1.634324    0.734669   -0.336088
      5          1           0        2.465965   -1.155768   -1.085501
      6          6           0        0.767765    1.262719    0.624477
      7          1           0        2.204308    1.413164   -0.979351
      8          1           0        0.562645    0.791194    1.582956
      9          1           0        0.553152    2.336248    0.593834
     10          6           0       -0.463248   -0.592234    0.495407
     11          1           0       -1.159983   -0.976050    1.250388
     12          8           0       -1.090923    0.326462   -0.305461
     13          8           0       -2.470570   -0.054714   -0.345673
     14          1           0       -2.881326    0.815114   -0.246838
 ---------------------------------------------------------------------
 Rotational constants (GHZ):           5.2585404           2.0697277           1.7227606
 Leave Link  202 at Tue May 20 11:49:18 2025, MaxMem=  3758096384 cpu:               0.1 elap:               0.0
 (Enter /gpfs/fs1/soft/bebop/software/custom-built/gaussian/16-c.02/g16/l301.exe)
 Standard basis: def2SVP (5D, 7F)
 Ernie: Thresh=  0.10000D-02 Tol=  0.10000D-05 Strict=F.
 There are   140 symmetry adapted cartesian basis functions of A   symmetry.
 There are   133 symmetry adapted basis functions of A   symmetry.
   133 basis functions,   224 primitive gaussians,   140 cartesian basis functions
    27 alpha electrons       26 beta electrons
       nuclear repulsion energy       296.7184959216 Hartrees.
 IExCor= 4639 DFT=T Ex+Corr=wB97XD ExCW=0 ScaHFX=  1.000000
 ScaDFX=  1.000000  1.000000  1.000000  1.000000 ScalE2=  1.000000  1.000000
 IRadAn=      5 IRanWt=     -1 IRanGd=            0 ICorTp=0 IEmpDi=121
 HFx  wShort=  0.000000 wLong=  0.200000 cFull=  0.222036 cShort=  0.000000 cLong=  0.777964
 DFx  wShort=  0.000000 wLong=  0.200000 cFull=  0.000000 cShort=  0.000000 cLong=  1.000000
 NAtoms=   14 NActive=   14 NUniq=   14 SFac= 1.00D+00 NAtFMM=   60 NAOKFM=F Big=F
 Integral buffers will be    131072 words long.
 Raffenetti 2 integral format.
 Two-electron integral symmetry is turned on.
 R6Disp:  Grimme-D2 Dispersion energy=       -0.0057573685 Hartrees.
 Nuclear repulsion after empirical dispersion term =      296.7127385531 Hartrees.
 Leave Link  301 at Tue May 20 11:49:18 2025, MaxMem=  3758096384 cpu:               0.3 elap:               0.1
 (Enter /gpfs/fs1/soft/bebop/software/custom-built/gaussian/16-c.02/g16/l302.exe)
 NPDir=0 NMtPBC=     1 NCelOv=     1 NCel=       1 NClECP=     1 NCelD=      1
         NCelK=      1 NCelE2=     1 NClLst=     1 CellRange=     0.0.
 One-electron integrals computed using PRISM.
 One-electron integral symmetry used in STVInt
   1 Symmetry operations used in ECPInt.
 ECPInt:  NShTT=    2016 NPrTT=    7252 LenC2=    2009 LenP2D=    5977.
 LDataN:  DoStor=T MaxTD1= 4 Len=   56
 NBasis=   133 RedAO= T EigKep=  1.05D-03  NBF=   133
 NBsUse=   133 1.00D-06 EigRej= -1.00D+00 NBFU=   133
 Precomputing XC quadrature grid using
 IXCGrd= 4 IRadAn=           5 IRanWt=          -1 IRanGd=           0 AccXCQ= 0.00D+00.
 Generated NRdTot=       0 NPtTot=           0 NUsed=           0 NTot=          32
 NSgBfM=   140   140   140   140   140 MxSgAt=    14 MxSgA2=    14.
 Leave Link  302 at Tue May 20 11:49:18 2025, MaxMem=  3758096384 cpu:               0.8 elap:               0.2
 (Enter /gpfs/fs1/soft/bebop/software/custom-built/gaussian/16-c.02/g16/l303.exe)
 DipDrv:  MaxL=1.
 Leave Link  303 at Tue May 20 11:49:18 2025, MaxMem=  3758096384 cpu:               0.1 elap:               0.0
 (Enter /gpfs/fs1/soft/bebop/software/custom-built/gaussian/16-c.02/g16/l401.exe)
 ExpMin= 1.22D-01 ExpMax= 2.27D+03 ExpMxC= 3.41D+02 IAcc=3 IRadAn=         5 AccDes= 0.00D+00
 Harris functional with IExCor= 4639 and IRadAn=       5 diagonalized for initial guess.
 HarFok:  IExCor= 4639 AccDes= 0.00D+00 IRadAn=         5 IDoV= 1 UseB2=F ITyADJ=14
 ICtDFT=  3500011 ScaDFX=  1.000000  1.000000  1.000000  1.000000
 FoFCou: FMM=F IPFlag=           0 FMFlag=      100000 FMFlg1=           0
         NFxFlg=           0 DoJE=T BraDBF=F KetDBF=T FulRan=T
         wScrn=  0.000000 ICntrl=       500 IOpCl=  0 I1Cent=   200000004 NGrid=           0
         NMat0=    1 NMatS0=      1 NMatT0=    0 NMatD0=    1 NMtDS0=    0 NMtDT0=    0
 Petite list used in FoFCou.
 Harris En= -330.313917906882    
 JPrj=0 DoOrth=F DoCkMO=F.
 Initial guess <Sx>= 0.0000 <Sy>= 0.0000 <Sz>= 0.5000 <S**2>= 0.7500 S= 0.5000
 Leave Link  401 at Tue May 20 11:49:19 2025, MaxMem=  3758096384 cpu:               2.4 elap:               0.4
 (Enter /gpfs/fs1/soft/bebop/software/custom-built/gaussian/16-c.02/g16/l502.exe)
 Keep R1 and R2 ints in memory in canonical form, NReq=165843629.
 FoFCou: FMM=F IPFlag=           0 FMFlag=           0 FMFlg1=           0
         NFxFlg=           0 DoJE=F BraDBF=F KetDBF=F FulRan=T
         wScrn=  0.000000 ICntrl=       600 IOpCl=  0 I1Cent=           0 NGrid=           0
         NMat0=    1 NMatS0=   8911 NMatT0=    0 NMatD0=    1 NMtDS0=    0 NMtDT0=    0
 Symmetry not used in FoFCou.
 Two-electron integral symmetry not used.
 UHF open shell SCF:
 Using DIIS extrapolation, IDIIS=  1040.
 NGot=  3758096384 LenX=  3599224750 LenY=  3599204709
 Requested convergence on RMS density matrix=1.00D-08 within  32 cycles.
 Requested convergence on MAX density matrix=1.00D-06.
 Requested convergence on             energy=1.00D-06.
 No special actions if energy rises.
 Integral accuracy reduced to 1.0D-05 until final iterations.

 Cycle   1  Pass 0  IDiag  1:
 E= -344.363139929347    
 DIIS: error= 2.60D-02 at cycle   1 NSaved=   1.
 NSaved= 1 IEnMin= 1 EnMin= -344.363139929347     IErMin= 1 ErrMin= 2.60D-02
 ErrMax= 2.60D-02  0.00D+00 EMaxC= 1.00D-01 BMatC= 1.25D+00 BMatP= 1.25D+00
 IDIUse=3 WtCom= 7.40D-01 WtEn= 2.60D-01
 Coeff-Com:  0.100D+01
 Coeff-En:   0.100D+01
 Coeff:      0.100D+01
 Gap=     0.188 Goal=   None    Shift=    0.000
 Gap=     0.519 Goal=   None    Shift=    0.000
 GapD=    0.188 DampG=1.000 DampE=0.500 DampFc=0.5000 IDamp=-1.
 Damping current iteration by 5.00D-01
 RMSDP=7.70D-03 MaxDP=2.00D-01              OVMax= 3.38D-01

 Cycle   2  Pass 0  IDiag  1:
 E= -344.437054508181     Delta-E=       -0.073914578834 Rises=F Damp=T
 DIIS: error= 1.32D-02 at cycle   2 NSaved=   2.
 NSaved= 2 IEnMin= 2 EnMin= -344.437054508181     IErMin= 2 ErrMin= 1.32D-02
 ErrMax= 1.32D-02  0.00D+00 EMaxC= 1.00D-01 BMatC= 1.45D-01 BMatP= 1.25D+00
 IDIUse=3 WtCom= 8.68D-01 WtEn= 1.32D-01
 Coeff-Com:  0.371D-01 0.963D+00
 Coeff-En:   0.213D+00 0.787D+00
 Coeff:      0.603D-01 0.940D+00
 Gap=     0.287 Goal=   None    Shift=    0.000
 Gap=     0.485 Goal=   None    Shift=    0.000
 RMSDP=2.15D-03 MaxDP=4.32D-02 DE=-7.39D-02 OVMax= 2.70D-01

 Cycle   3  Pass 0  IDiag  1:
 E= -344.562553509187     Delta-E=       -0.125499001006 Rises=F Damp=F
 DIIS: error= 4.23D-03 at cycle   3 NSaved=   3.
 NSaved= 3 IEnMin= 3 EnMin= -344.562553509187     IErMin= 3 ErrMin= 4.23D-03
 ErrMax= 4.23D-03  0.00D+00 EMaxC= 1.00D-01 BMatC= 2.08D-02 BMatP= 1.45D-01
 IDIUse=3 WtCom= 9.58D-01 WtEn= 4.23D-02
 Coeff-Com: -0.982D-01 0.200D+00 0.899D+00
 Coeff-En:   0.000D+00 0.000D+00 0.100D+01
 Coeff:     -0.941D-01 0.191D+00 0.903D+00
 Gap=     0.263 Goal=   None    Shift=    0.000
 Gap=     0.318 Goal=   None    Shift=    0.000
 RMSDP=7.92D-04 MaxDP=1.59D-02 DE=-1.25D-01 OVMax= 5.04D-02

 Cycle   4  Pass 0  IDiag  1:
 E= -344.568918842289     Delta-E=       -0.006365333102 Rises=F Damp=F
 DIIS: error= 1.59D-03 at cycle   4 NSaved=   4.
 NSaved= 4 IEnMin= 4 EnMin= -344.568918842289     IErMin= 4 ErrMin= 1.59D-03
 ErrMax= 1.59D-03  0.00D+00 EMaxC= 1.00D-01 BMatC= 3.98D-03 BMatP= 2.08D-02
 IDIUse=3 WtCom= 9.84D-01 WtEn= 1.59D-02
 Coeff-Com: -0.482D-01 0.756D-01 0.468D+00 0.505D+00
 Coeff-En:   0.000D+00 0.000D+00 0.000D+00 0.100D+01
 Coeff:     -0.474D-01 0.744D-01 0.460D+00 0.513D+00
 Gap=     0.266 Goal=   None    Shift=    0.000
 Gap=     0.320 Goal=   None    Shift=    0.000
 RMSDP=2.68D-04 MaxDP=5.29D-03 DE=-6.37D-03 OVMax= 1.21D-02

 Cycle   5  Pass 0  IDiag  1:
 E= -344.570144724828     Delta-E=       -0.001225882540 Rises=F Damp=F
 DIIS: error= 8.90D-04 at cycle   5 NSaved=   5.
 NSaved= 5 IEnMin= 5 EnMin= -344.570144724828     IErMin= 5 ErrMin= 8.90D-04
 ErrMax= 8.90D-04  0.00D+00 EMaxC= 1.00D-01 BMatC= 4.81D-04 BMatP= 3.98D-03
 IDIUse=3 WtCom= 9.91D-01 WtEn= 8.90D-03
 Coeff-Com:  0.190D-01-0.447D-01-0.178D+00 0.430D-01 0.116D+01
 Coeff-En:   0.000D+00 0.000D+00 0.000D+00 0.000D+00 0.100D+01
 Coeff:      0.188D-01-0.443D-01-0.176D+00 0.426D-01 0.116D+01
 Gap=     0.273 Goal=   None    Shift=    0.000
 Gap=     0.324 Goal=   None    Shift=    0.000
 RMSDP=3.51D-04 MaxDP=6.73D-03 DE=-1.23D-03 OVMax= 2.53D-02

 Cycle   6  Pass 0  IDiag  1:
 E= -344.570917317481     Delta-E=       -0.000772592652 Rises=F Damp=F
 DIIS: error= 5.05D-04 at cycle   6 NSaved=   6.
 NSaved= 6 IEnMin= 6 EnMin= -344.570917317481     IErMin= 6 ErrMin= 5.05D-04
 ErrMax= 5.05D-04  0.00D+00 EMaxC= 1.00D-01 BMatC= 1.49D-04 BMatP= 4.81D-04
 IDIUse=3 WtCom= 9.95D-01 WtEn= 5.05D-03
 Coeff-Com:  0.161D-01-0.285D-01-0.133D+00-0.126D+00 0.235D+00 0.104D+01
 Coeff-En:   0.000D+00 0.000D+00 0.000D+00 0.000D+00 0.000D+00 0.100D+01
 Coeff:      0.161D-01-0.283D-01-0.133D+00-0.125D+00 0.234D+00 0.104D+01
 Gap=     0.275 Goal=   None    Shift=    0.000
 Gap=     0.326 Goal=   None    Shift=    0.000
 RMSDP=2.09D-04 MaxDP=3.37D-03 DE=-7.73D-04 OVMax= 1.46D-02

 Cycle   7  Pass 0  IDiag  1:
 E= -344.571144808999     Delta-E=       -0.000227491519 Rises=F Damp=F
 DIIS: error= 2.98D-04 at cycle   7 NSaved=   7.
 NSaved= 7 IEnMin= 7 EnMin= -344.571144808999     IErMin= 7 ErrMin= 2.98D-04
 ErrMax= 2.98D-04  0.00D+00 EMaxC= 1.00D-01 BMatC= 5.74D-05 BMatP= 1.49D-04
 IDIUse=3 WtCom= 9.97D-01 WtEn= 2.98D-03
 Coeff-Com: -0.424D-03 0.354D-02 0.167D-01-0.416D-01-0.215D+00 0.390D+00
 Coeff-Com:  0.847D+00
 Coeff-En:   0.000D+00 0.000D+00 0.000D+00 0.000D+00 0.000D+00 0.000D+00
 Coeff-En:   0.100D+01
 Coeff:     -0.423D-03 0.353D-02 0.166D-01-0.415D-01-0.214D+00 0.389D+00
 Coeff:      0.847D+00
 Gap=     0.275 Goal=   None    Shift=    0.000
 Gap=     0.326 Goal=   None    Shift=    0.000
 RMSDP=9.17D-05 MaxDP=1.71D-03 DE=-2.27D-04 OVMax= 6.97D-03

 Cycle   8  Pass 0  IDiag  1:
 E= -344.571207675554     Delta-E=       -0.000062866555 Rises=F Damp=F
 DIIS: error= 1.55D-04 at cycle   8 NSaved=   8.
 NSaved= 8 IEnMin= 8 EnMin= -344.571207675554     IErMin= 8 ErrMin= 1.55D-04
 ErrMax= 1.55D-04  0.00D+00 EMaxC= 1.00D-01 BMatC= 1.61D-05 BMatP= 5.74D-05
 IDIUse=3 WtCom= 9.98D-01 WtEn= 1.55D-03
 Coeff-Com: -0.704D-02 0.132D-01 0.589D-01 0.345D-01-0.165D+00-0.284D+00
 Coeff-Com:  0.209D+00 0.114D+01
 Coeff-En:   0.000D+00 0.000D+00 0.000D+00 0.000D+00 0.000D+00 0.000D+00
 Coeff-En:   0.000D+00 0.100D+01
 Coeff:     -0.703D-02 0.132D-01 0.588D-01 0.345D-01-0.164D+00-0.284D+00
 Coeff:      0.209D+00 0.114D+01
 Gap=     0.276 Goal=   None    Shift=    0.000
 Gap=     0.326 Goal=   None    Shift=    0.000
 RMSDP=8.64D-05 MaxDP=1.46D-03 DE=-6.29D-05 OVMax= 6.35D-03

 Cycle   9  Pass 0  IDiag  1:
 E= -344.571242923898     Delta-E=       -0.000035248344 Rises=F Damp=F
 DIIS: error= 7.93D-05 at cycle   9 NSaved=   9.
 NSaved= 9 IEnMin= 9 EnMin= -344.571242923898     IErMin= 9 ErrMin= 7.93D-05
 ErrMax= 7.93D-05  0.00D+00 EMaxC= 1.00D-01 BMatC= 5.02D-06 BMatP= 1.61D-05
 IDIUse=1 WtCom= 1.00D+00 WtEn= 0.00D+00
 Coeff-Com: -0.134D-02 0.230D-02 0.360D-02 0.622D-02 0.130D-01-0.125D+00
 Coeff-Com: -0.125D+00 0.214D+00 0.101D+01
 Coeff:     -0.134D-02 0.230D-02 0.360D-02 0.622D-02 0.130D-01-0.125D+00
 Coeff:     -0.125D+00 0.214D+00 0.101D+01
 Gap=     0.276 Goal=   None    Shift=    0.000
 Gap=     0.327 Goal=   None    Shift=    0.000
 RMSDP=4.31D-05 MaxDP=7.81D-04 DE=-3.52D-05 OVMax= 3.45D-03

 Failed to achieve initial convergence to 1.0D-08 in 10 cycles.
 Switch to full accuracy anyway.
 Cycle  10  Pass 1  IDiag  1:
 E= -344.571243683956     Delta-E=       -0.000000760058 Rises=F Damp=F
 DIIS: error= 5.71D-05 at cycle   1 NSaved=   1.
 NSaved= 1 IEnMin= 1 EnMin= -344.571243683956     IErMin= 1 ErrMin= 5.71D-05
 ErrMax= 5.71D-05  0.00D+00 EMaxC= 1.00D-01 BMatC= 2.58D-06 BMatP= 2.58D-06
 IDIUse=1 WtCom= 1.00D+00 WtEn= 0.00D+00
 Coeff-Com:  0.100D+01
 Coeff:      0.100D+01
 Gap=     0.276 Goal=   None    Shift=    0.000
 Gap=     0.327 Goal=   None    Shift=    0.000
 RMSDP=4.31D-05 MaxDP=7.81D-04 DE=-7.60D-07 OVMax= 1.36D-03

 Cycle  11  Pass 1  IDiag  1:
 E= -344.571247319120     Delta-E=       -0.000003635164 Rises=F Damp=F
 DIIS: error= 5.09D-05 at cycle   2 NSaved=   2.
 NSaved= 2 IEnMin= 2 EnMin= -344.571247319120     IErMin= 2 ErrMin= 5.09D-05
 ErrMax= 5.09D-05  0.00D+00 EMaxC= 1.00D-01 BMatC= 1.37D-06 BMatP= 2.58D-06
 IDIUse=1 WtCom= 1.00D+00 WtEn= 0.00D+00
 Coeff-Com:  0.102D+00 0.898D+00
 Coeff:      0.102D+00 0.898D+00
 Gap=     0.276 Goal=   None    Shift=    0.000
 Gap=     0.327 Goal=   None    Shift=    0.000
 RMSDP=1.30D-05 MaxDP=2.40D-04 DE=-3.64D-06 OVMax= 1.05D-03

 Cycle  12  Pass 1  IDiag  1:
 E= -344.571249409164     Delta-E=       -0.000002090044 Rises=F Damp=F
 DIIS: error= 3.99D-05 at cycle   3 NSaved=   3.
 NSaved= 3 IEnMin= 3 EnMin= -344.571249409164     IErMin= 3 ErrMin= 3.99D-05
 ErrMax= 3.99D-05  0.00D+00 EMaxC= 1.00D-01 BMatC= 9.38D-07 BMatP= 1.37D-06
 IDIUse=1 WtCom= 1.00D+00 WtEn= 0.00D+00
 Coeff-Com: -0.519D+00 0.271D+00 0.125D+01
 Coeff:     -0.519D+00 0.271D+00 0.125D+01
 Gap=     0.276 Goal=   None    Shift=    0.000
 Gap=     0.327 Goal=   None    Shift=    0.000
 RMSDP=2.17D-05 MaxDP=4.61D-04 DE=-2.09D-06 OVMax= 1.80D-03

 Cycle  13  Pass 1  IDiag  1:
 E= -344.571252117713     Delta-E=       -0.000002708549 Rises=F Damp=F
 DIIS: error= 2.87D-05 at cycle   4 NSaved=   4.
 NSaved= 4 IEnMin= 4 EnMin= -344.571252117713     IErMin= 4 ErrMin= 2.87D-05
 ErrMax= 2.87D-05  0.00D+00 EMaxC= 1.00D-01 BMatC= 4.30D-07 BMatP= 9.38D-07
 IDIUse=1 WtCom= 1.00D+00 WtEn= 0.00D+00
 Coeff-Com: -0.195D+00-0.464D+00 0.282D+00 0.138D+01
 Coeff:     -0.195D+00-0.464D+00 0.282D+00 0.138D+01
 Gap=     0.276 Goal=   None    Shift=    0.000
 Gap=     0.327 Goal=   None    Shift=    0.000
 RMSDP=2.39D-05 MaxDP=4.78D-04 DE=-2.71D-06 OVMax= 2.03D-03

 Cycle  14  Pass 1  IDiag  1:
 E= -344.571253864419     Delta-E=       -0.000001746706 Rises=F Damp=F
 DIIS: error= 1.51D-05 at cycle   5 NSaved=   5.
 NSaved= 5 IEnMin= 5 EnMin= -344.571253864419     IErMin= 5 ErrMin= 1.51D-05
 ErrMax= 1.51D-05  0.00D+00 EMaxC= 1.00D-01 BMatC= 1.74D-07 BMatP= 4.30D-07
 IDIUse=1 WtCom= 1.00D+00 WtEn= 0.00D+00
 Coeff-Com:  0.158D+00-0.430D+00-0.499D+00 0.838D+00 0.933D+00
 Coeff:      0.158D+00-0.430D+00-0.499D+00 0.838D+00 0.933D+00
 Gap=     0.276 Goal=   None    Shift=    0.000
 Gap=     0.327 Goal=   None    Shift=    0.000
 RMSDP=1.67D-05 MaxDP=3.67D-04 DE=-1.75D-06 OVMax= 1.50D-03

 Cycle  15  Pass 1  IDiag  1:
 E= -344.571254344237     Delta-E=       -0.000000479818 Rises=F Damp=F
 DIIS: error= 4.06D-06 at cycle   6 NSaved=   6.
 NSaved= 6 IEnMin= 6 EnMin= -344.571254344237     IErMin= 6 ErrMin= 4.06D-06
 ErrMax= 4.06D-06  0.00D+00 EMaxC= 1.00D-01 BMatC= 2.46D-08 BMatP= 1.74D-07
 IDIUse=1 WtCom= 1.00D+00 WtEn= 0.00D+00
 Coeff-Com:  0.774D-01-0.101D+00-0.219D+00 0.140D+00 0.395D+00 0.708D+00
 Coeff:      0.774D-01-0.101D+00-0.219D+00 0.140D+00 0.395D+00 0.708D+00
 Gap=     0.276 Goal=   None    Shift=    0.000
 Gap=     0.327 Goal=   None    Shift=    0.000
 RMSDP=2.69D-06 MaxDP=5.54D-05 DE=-4.80D-07 OVMax= 2.58D-04

 Cycle  16  Pass 1  IDiag  1:
 E= -344.571254369496     Delta-E=       -0.000000025259 Rises=F Damp=F
 DIIS: error= 2.85D-06 at cycle   7 NSaved=   7.
 NSaved= 7 IEnMin= 7 EnMin= -344.571254369496     IErMin= 7 ErrMin= 2.85D-06
 ErrMax= 2.85D-06  0.00D+00 EMaxC= 1.00D-01 BMatC= 5.99D-09 BMatP= 2.46D-08
 IDIUse=1 WtCom= 1.00D+00 WtEn= 0.00D+00
 Coeff-Com: -0.308D-01 0.137D+00 0.111D+00-0.306D+00-0.180D+00 0.222D+00
 Coeff-Com:  0.105D+01
 Coeff:     -0.308D-01 0.137D+00 0.111D+00-0.306D+00-0.180D+00 0.222D+00
 Coeff:      0.105D+01
 Gap=     0.276 Goal=   None    Shift=    0.000
 Gap=     0.327 Goal=   None    Shift=    0.000
 RMSDP=2.10D-06 MaxDP=3.23D-05 DE=-2.53D-08 OVMax= 2.06D-04

 Cycle  17  Pass 1  IDiag  1:
 E= -344.571254379947     Delta-E=       -0.000000010451 Rises=F Damp=F
 DIIS: error= 1.51D-06 at cycle   8 NSaved=   8.
 NSaved= 8 IEnMin= 8 EnMin= -344.571254379947     IErMin= 8 ErrMin= 1.51D-06
 ErrMax= 1.51D-06  0.00D+00 EMaxC= 1.00D-01 BMatC= 9.34D-10 BMatP= 5.99D-09
 IDIUse=1 WtCom= 1.00D+00 WtEn= 0.00D+00
 Coeff-Com: -0.237D-01 0.572D-01 0.701D-01-0.113D+00-0.109D+00-0.804D-01
 Coeff-Com:  0.274D+00 0.925D+00
 Coeff:     -0.237D-01 0.572D-01 0.701D-01-0.113D+00-0.109D+00-0.804D-01
 Coeff:      0.274D+00 0.925D+00
 Gap=     0.276 Goal=   None    Shift=    0.000
 Gap=     0.327 Goal=   None    Shift=    0.000
 RMSDP=7.75D-07 MaxDP=1.30D-05 DE=-1.05D-08 OVMax= 7.72D-05

 Cycle  18  Pass 1  IDiag  1:
 E= -344.571254381640     Delta-E=       -0.000000001692 Rises=F Damp=F
 DIIS: error= 7.10D-07 at cycle   9 NSaved=   9.
 NSaved= 9 IEnMin= 9 EnMin= -344.571254381640     IErMin= 9 ErrMin= 7.10D-07
 ErrMax= 7.10D-07  0.00D+00 EMaxC= 1.00D-01 BMatC= 2.74D-10 BMatP= 9.34D-10
 IDIUse=1 WtCom= 1.00D+00 WtEn= 0.00D+00
 Coeff-Com:  0.968D-03-0.131D-01-0.847D-02 0.342D-01 0.144D-01-0.745D-01
 Coeff-Com: -0.166D+00 0.252D+00 0.960D+00
 Coeff:      0.968D-03-0.131D-01-0.847D-02 0.342D-01 0.144D-01-0.745D-01
 Coeff:     -0.166D+00 0.252D+00 0.960D+00
 Gap=     0.276 Goal=   None    Shift=    0.000
 Gap=     0.327 Goal=   None    Shift=    0.000
 RMSDP=4.21D-07 MaxDP=9.18D-06 DE=-1.69D-09 OVMax= 3.98D-05

 Cycle  19  Pass 1  IDiag  1:
 E= -344.571254382080     Delta-E=       -0.000000000440 Rises=F Damp=F
 DIIS: error= 3.93D-07 at cycle  10 NSaved=  10.
 NSaved=10 IEnMin=10 EnMin= -344.571254382080     IErMin=10 ErrMin= 3.93D-07
 ErrMax= 3.93D-07  0.00D+00 EMaxC= 1.00D-01 BMatC= 5.06D-11 BMatP= 2.74D-10
 IDIUse=1 WtCom= 1.00D+00 WtEn= 0.00D+00
 Coeff-Com:  0.705D-02-0.185D-01-0.241D-01 0.391D-01 0.383D-01 0.157D-01
 Coeff-Com: -0.997D-01-0.211D+00 0.636D-01 0.119D+01
 Coeff:      0.705D-02-0.185D-01-0.241D-01 0.391D-01 0.383D-01 0.157D-01
 Coeff:     -0.997D-01-0.211D+00 0.636D-01 0.119D+01
 Gap=     0.276 Goal=   None    Shift=    0.000
 Gap=     0.327 Goal=   None    Shift=    0.000
 RMSDP=1.99D-07 MaxDP=4.11D-06 DE=-4.40D-10 OVMax= 1.90D-05

 Cycle  20  Pass 1  IDiag  1:
 E= -344.571254382195     Delta-E=       -0.000000000115 Rises=F Damp=F
 DIIS: error= 1.32D-07 at cycle  11 NSaved=  11.
 NSaved=11 IEnMin=11 EnMin= -344.571254382195     IErMin=11 ErrMin= 1.32D-07
 ErrMax= 1.32D-07  0.00D+00 EMaxC= 1.00D-01 BMatC= 9.31D-12 BMatP= 5.06D-11
 IDIUse=1 WtCom= 1.00D+00 WtEn= 0.00D+00
 Coeff-Com: -0.417D-03 0.335D-02 0.214D-02-0.762D-02-0.410D-02 0.113D-01
 Coeff-Com:  0.341D-01-0.293D-01-0.204D+00-0.460D-01 0.124D+01
 Coeff:     -0.417D-03 0.335D-02 0.214D-02-0.762D-02-0.410D-02 0.113D-01
 Coeff:      0.341D-01-0.293D-01-0.204D+00-0.460D-01 0.124D+01
 Gap=     0.276 Goal=   None    Shift=    0.000
 Gap=     0.327 Goal=   None    Shift=    0.000
 RMSDP=8.19D-08 MaxDP=1.54D-06 DE=-1.15D-10 OVMax= 7.33D-06

 Cycle  21  Pass 1  IDiag  1:
 E= -344.571254382218     Delta-E=       -0.000000000023 Rises=F Damp=F
 DIIS: error= 6.47D-08 at cycle  12 NSaved=  12.
 NSaved=12 IEnMin=12 EnMin= -344.571254382218     IErMin=12 ErrMin= 6.47D-08
 ErrMax= 6.47D-08  0.00D+00 EMaxC= 1.00D-01 BMatC= 2.20D-12 BMatP= 9.31D-12
 IDIUse=1 WtCom= 1.00D+00 WtEn= 0.00D+00
 Coeff-Com: -0.129D-02 0.390D-02 0.465D-02-0.850D-02-0.769D-02 0.104D-02
 Coeff-Com:  0.269D-01 0.253D-01-0.706D-01-0.224D+00 0.343D+00 0.907D+00
 Coeff:     -0.129D-02 0.390D-02 0.465D-02-0.850D-02-0.769D-02 0.104D-02
 Coeff:      0.269D-01 0.253D-01-0.706D-01-0.224D+00 0.343D+00 0.907D+00
 Gap=     0.276 Goal=   None    Shift=    0.000
 Gap=     0.327 Goal=   None    Shift=    0.000
 RMSDP=2.74D-08 MaxDP=4.30D-07 DE=-2.34D-11 OVMax= 2.21D-06

 Cycle  22  Pass 1  IDiag  1:
 E= -344.571254382221     Delta-E=       -0.000000000003 Rises=F Damp=F
 DIIS: error= 3.55D-08 at cycle  13 NSaved=  13.
 NSaved=13 IEnMin=13 EnMin= -344.571254382221     IErMin=13 ErrMin= 3.55D-08
 ErrMax= 3.55D-08  0.00D+00 EMaxC= 1.00D-01 BMatC= 5.90D-13 BMatP= 2.20D-12
 IDIUse=1 WtCom= 1.00D+00 WtEn= 0.00D+00
 Coeff-Com: -0.984D-04-0.227D-03 0.348D-03 0.439D-03-0.496D-03-0.219D-02
 Coeff-Com: -0.356D-02 0.102D-01 0.430D-01-0.293D-01-0.246D+00 0.205D+00
 Coeff-Com:  0.102D+01
 Coeff:     -0.984D-04-0.227D-03 0.348D-03 0.439D-03-0.496D-03-0.219D-02
 Coeff:     -0.356D-02 0.102D-01 0.430D-01-0.293D-01-0.246D+00 0.205D+00
 Coeff:      0.102D+01
 Gap=     0.276 Goal=   None    Shift=    0.000
 Gap=     0.327 Goal=   None    Shift=    0.000
 RMSDP=1.25D-08 MaxDP=2.87D-07 DE=-2.61D-12 OVMax= 8.70D-07

 Cycle  23  Pass 1  IDiag  1:
 E= -344.571254382222     Delta-E=       -0.000000000001 Rises=F Damp=F
 DIIS: error= 2.12D-08 at cycle  14 NSaved=  14.
 NSaved=14 IEnMin=14 EnMin= -344.571254382222     IErMin=14 ErrMin= 2.12D-08
 ErrMax= 2.12D-08  0.00D+00 EMaxC= 1.00D-01 BMatC= 1.15D-13 BMatP= 5.90D-13
 IDIUse=1 WtCom= 1.00D+00 WtEn= 0.00D+00
 Coeff-Com:  0.385D-03-0.128D-02-0.133D-02 0.268D-02 0.226D-02-0.290D-03
 Coeff-Com: -0.832D-02-0.900D-02 0.260D-01 0.663D-01-0.127D+00-0.232D+00
 Coeff-Com:  0.261D-01 0.126D+01
 Coeff:      0.385D-03-0.128D-02-0.133D-02 0.268D-02 0.226D-02-0.290D-03
 Coeff:     -0.832D-02-0.900D-02 0.260D-01 0.663D-01-0.127D+00-0.232D+00
 Coeff:      0.261D-01 0.126D+01
 Gap=     0.276 Goal=   None    Shift=    0.000
 Gap=     0.327 Goal=   None    Shift=    0.000
 RMSDP=8.37D-09 MaxDP=1.54D-07 DE=-1.25D-12 OVMax= 6.63D-07

 SCF Done:  E(UwB97XD) =  -344.571254382     A.U. after   23 cycles
            NFock= 23  Conv=0.84D-08     -V/T= 2.0082
 <Sx>= 0.0000 <Sy>= 0.0000 <Sz>= 0.5000 <S**2>= 0.7891 S= 0.5193
 <L.S>=  0.00000000000    
 KE= 3.417529816762D+02 PE=-1.398140485686D+03 EE= 4.151035110743D+02
 Annihilation of the first spin contaminant:
 S**2 before annihilation     0.7891,   after     0.7506
 Leave Link  502 at Tue May 20 11:49:31 2025, MaxMem=  3758096384 cpu:              62.4 elap:              12.5
 (Enter /gpfs/fs1/soft/bebop/software/custom-built/gaussian/16-c.02/g16/l508.exe)
 QCSCF skips out because SCF is already converged.
 Leave Link  508 at Tue May 20 11:49:31 2025, MaxMem=  3758096384 cpu:               0.0 elap:               0.0
 (Enter /gpfs/fs1/soft/bebop/software/custom-built/gaussian/16-c.02/g16/l601.exe)
 Copying SCF densities to generalized density rwf, IOpCl= 1 IROHF=0.

 **********************************************************************

            Population analysis using the SCF Density.

 **********************************************************************

 Orbital symmetries:
 Alpha Orbitals:
       Occupied  (A) (A) (A) (A) (A) (A) (A) (A) (A) (A) (A) (A)
                 (A) (A) (A) (A) (A) (A) (A) (A) (A) (A) (A) (A)
                 (A) (A) (A)
       Virtual   (A) (A) (A) (A) (A) (A) (A) (A) (A) (A) (A) (A)
                 (A) (A) (A) (A) (A) (A) (A) (A) (A) (A) (A) (A)
                 (A) (A) (A) (A) (A) (A) (A) (A) (A) (A) (A) (A)
                 (A) (A) (A) (A) (A) (A) (A) (A) (A) (A) (A) (A)
                 (A) (A) (A) (A) (A) (A) (A) (A) (A) (A) (A) (A)
                 (A) (A) (A) (A) (A) (A) (A) (A) (A) (A) (A) (A)
                 (A) (A) (A) (A) (A) (A) (A) (A) (A) (A) (A) (A)
                 (A) (A) (A) (A) (A) (A) (A) (A) (A) (A) (A) (A)
                 (A) (A) (A) (A) (A) (A) (A) (A) (A) (A)
 Beta  Orbitals:
       Occupied  (A) (A) (A) (A) (A) (A) (A) (A) (A) (A) (A) (A)
                 (A) (A) (A) (A) (A) (A) (A) (A) (A) (A) (A) (A)
                 (A) (A)
       Virtual   (A) (A) (A) (A) (A) (A) (A) (A) (A) (A) (A) (A)
                 (A) (A) (A) (A) (A) (A) (A) (A) (A) (A) (A) (A)
                 (A) (A) (A) (A) (A) (A) (A) (A) (A) (A) (A) (A)
                 (A) (A) (A) (A) (A) (A) (A) (A) (A) (A) (A) (A)
                 (A) (A) (A) (A) (A) (A) (A) (A) (A) (A) (A) (A)
                 (A) (A) (A) (A) (A) (A) (A) (A) (A) (A) (A) (A)
                 (A) (A) (A) (A) (A) (A) (A) (A) (A) (A) (A) (A)
                 (A) (A) (A) (A) (A) (A) (A) (A) (A) (A) (A) (A)
                 (A) (A) (A) (A) (A) (A) (A) (A) (A) (A) (A)
 The electronic state is 2-A.
 Alpha  occ. eigenvalues --  -19.33643 -19.31874 -10.36068 -10.30261 -10.29676
 Alpha  occ. eigenvalues --  -10.29481 -10.29313  -1.24277  -1.03040  -0.92066
 Alpha  occ. eigenvalues --   -0.82605  -0.77057  -0.67295  -0.65299  -0.62172
 Alpha  occ. eigenvalues --   -0.59236  -0.57446  -0.54368  -0.50628  -0.48157
 Alpha  occ. eigenvalues --   -0.46675  -0.45240  -0.43948  -0.38867  -0.38546
 Alpha  occ. eigenvalues --   -0.32329  -0.23358
 Alpha virt. eigenvalues --    0.04267   0.11558   0.14147   0.14836   0.16780
 Alpha virt. eigenvalues --    0.18061   0.19816   0.22125   0.22594   0.24764
 Alpha virt. eigenvalues --    0.29197   0.35441   0.39006   0.44263   0.45977
 Alpha virt. eigenvalues --    0.48073   0.51824   0.52665   0.55089   0.57052
 Alpha virt. eigenvalues --    0.58499   0.60576   0.63196   0.64503   0.67193
 Alpha virt. eigenvalues --    0.67577   0.71687   0.71977   0.73197   0.73778
 Alpha virt. eigenvalues --    0.75173   0.76529   0.78973   0.80308   0.83794
 Alpha virt. eigenvalues --    0.85219   0.86486   0.90519   0.90946   0.98094
 Alpha virt. eigenvalues --    1.01819   1.03691   1.08197   1.11935   1.18751
 Alpha virt. eigenvalues --    1.19355   1.21972   1.29994   1.33974   1.36444
 Alpha virt. eigenvalues --    1.41500   1.45244   1.48269   1.51239   1.59662
 Alpha virt. eigenvalues --    1.67213   1.69566   1.71256   1.71622   1.73914
 Alpha virt. eigenvalues --    1.76770   1.78408   1.82466   1.83317   1.86625
 Alpha virt. eigenvalues --    1.88514   1.91061   1.93780   1.95766   2.00429
 Alpha virt. eigenvalues --    2.03677   2.05384   2.10641   2.11677   2.17086
 Alpha virt. eigenvalues --    2.18189   2.24812   2.26836   2.27270   2.30256
 Alpha virt. eigenvalues --    2.39141   2.42953   2.46861   2.48316   2.52014
 Alpha virt. eigenvalues --    2.53035   2.55580   2.60490   2.64724   2.71785
 Alpha virt. eigenvalues --    2.78580   2.84413   2.86337   2.86845   2.92852
 Alpha virt. eigenvalues --    3.02080   3.03168   3.06568   3.14611   3.17954
 Alpha virt. eigenvalues --    3.23467   3.36349   3.43608   3.56858   3.65420
 Alpha virt. eigenvalues --    3.96559
  Beta  occ. eigenvalues --  -19.33571 -19.31837 -10.35820 -10.30556 -10.29572
  Beta  occ. eigenvalues --  -10.29095 -10.28450  -1.24121  -1.02736  -0.91320
  Beta  occ. eigenvalues --   -0.81874  -0.75148  -0.66761  -0.64926  -0.61500
  Beta  occ. eigenvalues --   -0.58992  -0.56985  -0.53814  -0.50027  -0.47765
  Beta  occ. eigenvalues --   -0.45942  -0.44658  -0.43579  -0.38142  -0.36241
  Beta  occ. eigenvalues --   -0.31034
  Beta virt. eigenvalues --    0.01674   0.04430   0.12452   0.14581   0.16621
  Beta virt. eigenvalues --    0.17296   0.18455   0.20788   0.22520   0.22904
  Beta virt. eigenvalues --    0.25045   0.29692   0.35791   0.39200   0.44712
  Beta virt. eigenvalues --    0.46206   0.48444   0.52464   0.52960   0.55636
  Beta virt. eigenvalues --    0.57616   0.59314   0.61399   0.63624   0.65668
  Beta virt. eigenvalues --    0.67084   0.68362   0.72272   0.72711   0.74018
  Beta virt. eigenvalues --    0.74442   0.75679   0.77051   0.79764   0.80646
  Beta virt. eigenvalues --    0.84189   0.85459   0.86980   0.91234   0.91264
  Beta virt. eigenvalues --    0.98347   1.01940   1.03952   1.08468   1.12181
  Beta virt. eigenvalues --    1.19077   1.19727   1.22451   1.30439   1.35049
  Beta virt. eigenvalues --    1.36700   1.41801   1.45796   1.48585   1.51505
  Beta virt. eigenvalues --    1.60138   1.67355   1.69957   1.71568   1.71980
  Beta virt. eigenvalues --    1.74144   1.77189   1.78841   1.83249   1.83903
  Beta virt. eigenvalues --    1.87009   1.88735   1.91902   1.94462   1.96989
  Beta virt. eigenvalues --    2.01213   2.04237   2.05984   2.10962   2.12528
  Beta virt. eigenvalues --    2.17845   2.18697   2.26053   2.27366   2.27714
  Beta virt. eigenvalues --    2.31672   2.40088   2.43860   2.47696   2.48715
  Beta virt. eigenvalues --    2.52480   2.53301   2.56447   2.61575   2.65446
  Beta virt. eigenvalues --    2.72136   2.79082   2.84758   2.86810   2.87387
  Beta virt. eigenvalues --    2.93742   3.02111   3.03749   3.06995   3.15023
  Beta virt. eigenvalues --    3.18173   3.23911   3.36601   3.43864   3.57212
  Beta virt. eigenvalues --    3.65480   3.96665
          Condensed to atoms (all electrons):
               1          2          3          4          5          6
     1  C    5.032490   0.345797   0.405410  -0.053514  -0.048077  -0.084016
     2  C    0.345797   4.983508  -0.046458   0.488627   0.426393  -0.058125
     3  H    0.405410  -0.046458   0.628921   0.005929  -0.002379  -0.000202
     4  C   -0.053514   0.488627   0.005929   4.819890  -0.049222   0.490001
     5  H   -0.048077   0.426393  -0.002379  -0.049222   0.633345   0.009777
     6  C   -0.084016  -0.058125  -0.000202   0.490001   0.009777   5.087530
     7  H    0.009044  -0.045711  -0.000303   0.420090  -0.007552  -0.048297
     8  H   -0.009666  -0.022789   0.000540   0.000335  -0.000326   0.370359
     9  H    0.003726   0.009575  -0.000029  -0.023266  -0.000170   0.377879
    10  C    0.520145  -0.050774  -0.025216  -0.037024   0.008530  -0.027247
    11  H   -0.040333   0.007967  -0.011117   0.003531  -0.000260  -0.006258
    12  O   -0.045137  -0.002531   0.002763  -0.005801   0.000010  -0.041197
    13  O    0.002757  -0.000611  -0.000056   0.000464   0.000012   0.004524
    14  H   -0.000290   0.000051  -0.000000   0.000031  -0.000002  -0.000751
               7          8          9         10         11         12
     1  C    0.009044  -0.009666   0.003726   0.520145  -0.040333  -0.045137
     2  C   -0.045711  -0.022789   0.009575  -0.050774   0.007967  -0.002531
     3  H   -0.000303   0.000540  -0.000029  -0.025216  -0.011117   0.002763
     4  C    0.420090   0.000335  -0.023266  -0.037024   0.003531  -0.005801
     5  H   -0.007552  -0.000326  -0.000170   0.008530  -0.000260   0.000010
     6  C   -0.048297   0.370359   0.377879  -0.027247  -0.006258  -0.041197
     7  H    0.638708   0.004562  -0.009887   0.003003  -0.000008  -0.000433
     8  H    0.004562   0.599550  -0.035244   0.014549   0.005651  -0.008880
     9  H   -0.009887  -0.035244   0.639791   0.000290  -0.000206   0.000181
    10  C    0.003003   0.014549   0.000290   4.880536   0.394158   0.278556
    11  H   -0.000008   0.005651  -0.000206   0.394158   0.629565  -0.037340
    12  O   -0.000433  -0.008880   0.000181   0.278556  -0.037340   7.984285
    13  O    0.000010   0.000088  -0.000009  -0.052368   0.009148   0.099191
    14  H   -0.000003   0.000136  -0.000016   0.002347   0.002076  -0.017775
              13         14
     1  C    0.002757  -0.000290
     2  C   -0.000611   0.000051
     3  H   -0.000056  -0.000000
     4  C    0.000464   0.000031
     5  H    0.000012  -0.000002
     6  C    0.004524  -0.000751
     7  H    0.000010  -0.000003
     8  H    0.000088   0.000136
     9  H   -0.000009  -0.000016
    10  C   -0.052368   0.002347
    11  H    0.009148   0.002076
    12  O    0.099191  -0.017775
    13  O    7.772158   0.312129
    14  H    0.312129   0.502794
          Atomic-Atomic Spin Densities.
               1          2          3          4          5          6
     1  C   -0.065496  -0.062102   0.005676   0.012528   0.000186  -0.030070
     2  C   -0.062102   0.619986  -0.007529   0.001614   0.006235  -0.022887
     3  H    0.005676  -0.007529   0.016705   0.000645  -0.000068  -0.002198
     4  C    0.012528   0.001614   0.000645  -0.271703  -0.000061  -0.028117
     5  H    0.000186   0.006235  -0.000068  -0.000061  -0.030203  -0.000339
     6  C   -0.030070  -0.022887  -0.002198  -0.028117  -0.000339   0.919112
     7  H   -0.000443  -0.004153  -0.000047   0.003602   0.000079  -0.002247
     8  H    0.006232  -0.000709   0.000358   0.001479   0.000009  -0.009841
     9  H    0.000235  -0.000430   0.000026  -0.000131   0.000013  -0.002350
    10  C    0.045986  -0.014957  -0.003789   0.002472  -0.000489  -0.075174
    11  H   -0.001585   0.000083   0.000293  -0.000185   0.000013   0.000504
    12  O    0.001495   0.003812   0.000384   0.004737  -0.000004  -0.042898
    13  O    0.000100  -0.000131  -0.000010  -0.000183  -0.000001   0.002401
    14  H   -0.000033  -0.000024  -0.000004   0.000005   0.000000   0.000514
               7          8          9         10         11         12
     1  C   -0.000443   0.006232   0.000235   0.045986  -0.001585   0.001495
     2  C   -0.004153  -0.000709  -0.000430  -0.014957   0.000083   0.003812
     3  H   -0.000047   0.000358   0.000026  -0.003789   0.000293   0.000384
     4  C    0.003602   0.001479  -0.000131   0.002472  -0.000185   0.004737
     5  H    0.000079   0.000009   0.000013  -0.000489   0.000013  -0.000004
     6  C   -0.002247  -0.009841  -0.002350  -0.075174   0.000504  -0.042898
     7  H    0.022256  -0.000526  -0.000622  -0.000534   0.000001  -0.000177
     8  H   -0.000526  -0.032574   0.003836   0.004668  -0.000086   0.002170
     9  H   -0.000622   0.003836  -0.031859   0.002390   0.000011   0.000407
    10  C   -0.000534   0.004668   0.002390   0.232743   0.002417  -0.013290
    11  H    0.000001  -0.000086   0.000011   0.002417  -0.012031   0.000077
    12  O   -0.000177   0.002170   0.000407  -0.013290   0.000077   0.047456
    13  O    0.000004  -0.000121  -0.000026  -0.000841   0.000446  -0.004643
    14  H    0.000002  -0.000023  -0.000029   0.000418  -0.000054  -0.000821
              13         14
     1  C    0.000100  -0.000033
     2  C   -0.000131  -0.000024
     3  H   -0.000010  -0.000004
     4  C   -0.000183   0.000005
     5  H   -0.000001   0.000000
     6  C    0.002401   0.000514
     7  H    0.000004   0.000002
     8  H   -0.000121  -0.000023
     9  H   -0.000026  -0.000029
    10  C   -0.000841   0.000418
    11  H    0.000446  -0.000054
    12  O   -0.004643  -0.000821
    13  O    0.018415   0.000161
    14  H    0.000161  -0.000293
 Mulliken charges and spin densities:
               1          2
     1  C   -0.038335  -0.087291
     2  C   -0.034918   0.518808
     3  H    0.042198   0.010443
     4  C   -0.060072  -0.273298
     5  H    0.029921  -0.024629
     6  C   -0.073978   0.706411
     7  H    0.036776   0.017194
     8  H    0.081134  -0.025129
     9  H    0.037385  -0.028528
    10  C    0.090517   0.182021
    11  H    0.043425  -0.010097
    12  O   -0.205891  -0.001294
    13  O   -0.147436   0.015570
    14  H    0.199273  -0.000181
 Sum of Mulliken charges =  -0.00000   1.00000
 Mulliken charges and spin densities with hydrogens summed into heavy atoms:
               1          2
     1  C    0.003863  -0.076848
     2  C   -0.004997   0.494179
     4  C   -0.023295  -0.256104
     6  C    0.044541   0.652754
    10  C    0.133942   0.171924
    12  O   -0.205891  -0.001294
    13  O    0.051837   0.015389
 Electronic spatial extent (au):  <R**2>=            733.5648
 Charge=             -0.0000 electrons
 Dipole moment (field-independent basis, Debye):
    X=             -0.6087    Y=              0.9277    Z=              1.0834  Tot=              1.5508
 Quadrupole moment (field-independent basis, Debye-Ang):
   XX=            -37.3616   YY=            -38.9741   ZZ=            -41.5488
   XY=             -4.7175   XZ=             -3.1509   YZ=             -1.6610
 Traceless Quadrupole moment (field-independent basis, Debye-Ang):
   XX=              1.9333   YY=              0.3208   ZZ=             -2.2540
   XY=             -4.7175   XZ=             -3.1509   YZ=             -1.6610
 Octapole moment (field-independent basis, Debye-Ang**2):
  XXX=            -35.2727  YYY=              3.4786  ZZZ=             -0.4902  XYY=             -6.9153
  XXY=             12.6499  XXZ=             -5.8674  XZZ=             -5.4867  YZZ=             -0.0681
  YYZ=             -0.1316  XYZ=              0.5772
 Hexadecapole moment (field-independent basis, Debye-Ang**3):
 XXXX=           -506.7562 YYYY=           -242.7467 ZZZZ=           -111.6886 XXXY=            -48.4877
 XXXZ=            -10.4685 YYYX=            -11.2538 YYYZ=             -8.5190 ZZZX=              1.1895
 ZZZY=             -3.0361 XXYY=           -121.8135 XXZZ=           -112.2936 YYZZ=            -59.2927
 XXYZ=             -6.2841 YYXZ=             -1.7360 ZZXY=             -1.8869
 N-N= 2.967127385531D+02 E-N=-1.398140485604D+03  KE= 3.417529816762D+02
                          Isotropic Fermi Contact Couplings
        Atom                 a.u.       MegaHertz       Gauss      10(-4) cm-1
     1  C(13)             -0.03422     -38.47183     -13.72770     -12.83282
     2  C(13)              0.09281     104.33291      37.22858      34.80171
     3  H(1)               0.00467      20.88783       7.45330       6.96743
     4  C(13)             -0.07535     -84.70513     -30.22490     -28.25459
     5  H(1)              -0.00761     -34.01449     -12.13722     -11.34601
     6  C(13)              0.19088     214.58934      76.57081      71.57930
     7  H(1)               0.00674      30.13624      10.75336      10.05237
     8  H(1)              -0.00975     -43.57493     -15.54862     -14.53503
     9  H(1)              -0.00775     -34.62253     -12.35418     -11.54883
    10  C(13)              0.03576      40.19856      14.34385      13.40880
    11  H(1)              -0.00316     -14.11428      -5.03633      -4.70802
    12  O(17)              0.15715     -95.26492     -33.99289     -31.77696
    13  O(17)             -0.00281       1.70131       0.60707       0.56750
    14  H(1)              -0.00018      -0.79976      -0.28537      -0.26677
 --------------------------------------------------------
       Center         ----  Spin Dipole Couplings  ----
                      3XX-RR        3YY-RR        3ZZ-RR
 --------------------------------------------------------
     1   Atom        0.006033      0.007774     -0.013807
     2   Atom        0.006920     -0.252735      0.245815
     3   Atom       -0.001227      0.006731     -0.005504
     4   Atom       -0.066561      0.104856     -0.038295
     5   Atom        0.013891     -0.018906      0.005015
     6   Atom        0.471530     -0.236663     -0.234868
     7   Atom       -0.002383      0.004169     -0.001786
     8   Atom       -0.021085     -0.024470      0.045555
     9   Atom       -0.008749      0.051863     -0.043114
    10   Atom       -0.065419      0.045404      0.020015
    11   Atom        0.000682     -0.006088      0.005406
    12   Atom       -0.026491     -0.004638      0.031129
    13   Atom        0.048861     -0.015945     -0.032916
    14   Atom        0.005036     -0.000098     -0.004938
 --------------------------------------------------------
                        XY            XZ            YZ
 --------------------------------------------------------
     1   Atom       -0.020000     -0.033493     -0.017767
     2   Atom       -0.063023      0.362165     -0.072788
     3   Atom       -0.001895     -0.003531     -0.001357
     4   Atom       -0.009550     -0.161747      0.014579
     5   Atom       -0.027661     -0.010583      0.014827
     6   Atom        0.325524      0.341642      0.125177
     7   Atom       -0.005464     -0.006391      0.006728
     8   Atom        0.011892      0.009032     -0.031990
     9   Atom       -0.008820      0.016576      0.000278
    10   Atom        0.092963      0.078012      0.148004
    11   Atom        0.012476     -0.012411     -0.002221
    12   Atom       -0.020687     -0.000933      0.040965
    13   Atom        0.045249      0.017752      0.005669
    14   Atom       -0.002703      0.001587      0.000341
 --------------------------------------------------------


 ---------------------------------------------------------------------------------
              Anisotropic Spin Dipole Couplings in Principal Axis System
 ---------------------------------------------------------------------------------

       Atom             a.u.   MegaHertz   Gauss  10(-4) cm-1        Axes

              Baa    -0.0506    -6.796    -2.425    -2.267  0.5669  0.4112  0.7138
     1 C(13)  Bbb     0.0177     2.379     0.849     0.794  0.0403  0.8516 -0.5226
              Bcc     0.0329     4.417     1.576     1.473  0.8228 -0.3251 -0.4662
 
              Baa    -0.2695   -36.159   -12.903   -12.061  0.4671  0.8597 -0.2069
     2 C(13)  Bbb    -0.2502   -33.570   -11.979   -11.198  0.6651 -0.4958 -0.5584
              Bcc     0.5196    69.730    24.881    23.259  0.5826 -0.1232  0.8034
 
              Baa    -0.0078    -4.163    -1.486    -1.389  0.5002  0.1449  0.8537
     3 H(1)   Bbb     0.0006     0.329     0.117     0.110  0.8425  0.1461 -0.5184
              Bcc     0.0072     3.834     1.368     1.279 -0.1998  0.9786 -0.0490
 
              Baa    -0.2148   -28.826   -10.286    -9.615  0.7369 -0.0088  0.6759
     4 C(13)  Bbb     0.0900    12.080     4.311     4.030  0.4468  0.7567 -0.4772
              Bcc     0.1248    16.746     5.975     5.586 -0.5073  0.6537  0.5616
 
              Baa    -0.0362   -19.335    -6.899    -6.450  0.4402  0.8750 -0.2015
     5 H(1)   Bbb    -0.0019    -1.001    -0.357    -0.334  0.4954 -0.0495  0.8673
              Bcc     0.0381    20.336     7.256     6.783  0.7489 -0.4816 -0.4552
 
              Baa    -0.3754   -50.379   -17.977   -16.805 -0.4651  0.3626  0.8076
     6 C(13)  Bbb    -0.3595   -48.236   -17.212   -16.090 -0.1455  0.8686 -0.4738
              Bcc     0.7349    98.615    35.188    32.894  0.8732  0.3378  0.3512
 
              Baa    -0.0086    -4.563    -1.628    -1.522  0.6721 -0.0994  0.7337
     7 H(1)   Bbb    -0.0043    -2.316    -0.826    -0.773  0.5694  0.7028 -0.4264
              Bcc     0.0129     6.879     2.455     2.295 -0.4733  0.7044  0.5289
 
              Baa    -0.0454   -24.229    -8.645    -8.082 -0.5106  0.7940  0.3299
     8 H(1)   Bbb    -0.0128    -6.818    -2.433    -2.274  0.8581  0.4944  0.1383
              Bcc     0.0582    31.047    11.078    10.356  0.0533 -0.3537  0.9338
 
              Baa    -0.0499   -26.641    -9.506    -8.887 -0.3797 -0.0354  0.9244
     9 H(1)   Bbb    -0.0032    -1.726    -0.616    -0.576  0.9134  0.1443  0.3807
              Bcc     0.0532    28.367    10.122     9.462 -0.1469  0.9889 -0.0224
 
              Baa    -0.1204   -16.163    -5.767    -5.391 -0.6287  0.6835 -0.3710
    10 C(13)  Bbb    -0.1104   -14.819    -5.288    -4.943 -0.6792 -0.2502  0.6900
              Bcc     0.2309    30.982    11.055    10.334  0.3788  0.6858  0.6215
 
              Baa    -0.0175    -9.311    -3.322    -3.106 -0.6712  0.6786 -0.2985
    11 H(1)   Bbb    -0.0022    -1.179    -0.421    -0.393  0.3216  0.6293  0.7075
              Bcc     0.0197    10.490     3.743     3.499  0.6679  0.3789 -0.6406
 
              Baa    -0.0466     3.369     1.202     1.124  0.6668  0.6625 -0.3413
    12 O(17)  Bbb    -0.0131     0.951     0.339     0.317  0.7311 -0.4930  0.4716
              Bcc     0.0597    -4.321    -1.542    -1.441 -0.1441  0.5640  0.8131
 
              Baa    -0.0410     2.969     1.059     0.990 -0.4648  0.7226  0.5117
    13 O(17)  Bbb    -0.0342     2.475     0.883     0.826  0.1073 -0.5276  0.8427
              Bcc     0.0752    -5.444    -1.943    -1.816  0.8789  0.4466  0.1677
 
              Baa    -0.0053    -2.832    -1.011    -0.945 -0.1910 -0.1625  0.9681
    14 H(1)   Bbb    -0.0010    -0.558    -0.199    -0.186  0.3472  0.9113  0.2214
              Bcc     0.0064     3.390     1.210     1.131  0.9181 -0.3784  0.1176
 

 ---------------------------------------------------------------------------------

 No NMR shielding tensors so no spin-rotation constants.
 Leave Link  601 at Tue May 20 11:49:32 2025, MaxMem=  3758096384 cpu:               5.8 elap:               1.2
 (Enter /gpfs/fs1/soft/bebop/software/custom-built/gaussian/16-c.02/g16/l701.exe)
 ... and contract with generalized density number  0.
 Compute integral first derivatives.
 R6Disp: Adding Grimme-D2 dispersion energy 1st derivatives to the gradient.
   1 Symmetry operations used in ECPInt.
 ECPInt:  NShTT=    2016 NPrTT=    7252 LenC2=    2009 LenP2D=    5977.
 LDataN:  DoStor=T MaxTD1= 5 Len=  102
 Leave Link  701 at Tue May 20 11:49:33 2025, MaxMem=  3758096384 cpu:               0.5 elap:               0.1
 (Enter /gpfs/fs1/soft/bebop/software/custom-built/gaussian/16-c.02/g16/l702.exe)
 L702 exits ... SP integral derivatives will be done elsewhere.
 Leave Link  702 at Tue May 20 11:49:33 2025, MaxMem=  3758096384 cpu:               0.1 elap:               0.0
 (Enter /gpfs/fs1/soft/bebop/software/custom-built/gaussian/16-c.02/g16/l703.exe)
 Integral derivatives from FoFJK, PRISM(SPDF).
 Compute integral first derivatives, UseDBF=F ICtDFT=           0.
 Calling FoFJK, ICntrl=      2127 FMM=F ISym2X=0 I1Cent= 0 IOpClX= 1 NMat=1 NMatS=1 NMatT=0.
 FoFJK:  IHMeth= 1 ICntrl=    2127 DoSepK=T KAlg= 0 I1Cent=           0 FoldK=F
 IRaf=         1 NMat=       1 IRICut=       1 DoRegI=T DoRafI=F ISym2E= 0 IDoP0=0 IntGTp=1.
 FoFCou: FMM=F IPFlag=           0 FMFlag=      100000 FMFlg1=         800
         NFxFlg=           0 DoJE=F BraDBF=F KetDBF=F FulRan=T
         wScrn=  0.000000 ICntrl=      2527 IOpCl=  0 I1Cent=           0 NGrid=           0
         NMat0=    1 NMatS0=      1 NMatT0=    0 NMatD0=    1 NMtDS0=    0 NMtDT0=    0
 Symmetry not used in FoFCou.
 Leave Link  703 at Tue May 20 11:49:35 2025, MaxMem=  3758096384 cpu:              12.1 elap:               2.0
 (Enter /gpfs/fs1/soft/bebop/software/custom-built/gaussian/16-c.02/g16/l716.exe)
 Dipole        =-2.39469146D-01 3.64973374D-01 4.26259803D-01
 ***** Axes restored to original set *****
 -------------------------------------------------------------------
 Center     Atomic                   Forces (Hartrees/Bohr)
 Number     Number              X              Y              Z
 -------------------------------------------------------------------
      1        6          -0.000108646   -0.000222582    0.001220787
      2        6           0.000392371    0.000239089    0.000332262
      3        1          -0.000253578    0.000023860   -0.000165008
      4        6           0.000278289    0.000037834    0.000199866
      5        1          -0.000073721    0.000005523    0.000058796
      6        6          -0.012350136   -0.041986527    0.048593423
      7        1           0.000029006   -0.000047029    0.000004147
      8        1           0.000059785   -0.000248172    0.000099557
      9        1          -0.000043228    0.000039114   -0.000059699
     10        6           0.012784750    0.041877431   -0.049944791
     11        1          -0.000370967   -0.000252347   -0.000035483
     12        8          -0.000230309    0.000302004   -0.000215457
     13        8          -0.000093412    0.000252532   -0.000093006
     14        1          -0.000020205   -0.000020731    0.000004604
 -------------------------------------------------------------------
 Cartesian Forces:  Max     0.049944791 RMS     0.014385028
 -----------------------------------------------------------------------------------------------
                       Internal Coordinate Forces (Hartree/Bohr or radian)
  Cent   Atom   N1       Length/X         N2         Alpha/Y        N3         Beta/Z          J
 -----------------------------------------------------------------------------------------------
      1  C 
      2  C        1  -0.001154(     1)
      3  H        1  -0.000121(     2)      2   0.000573(    14)
      4  C        2  -0.000660(     3)      1  -0.001506(    15)      3  -0.000046(    26)     0
      5  H        2  -0.000010(     4)      1   0.000161(    16)      4   0.000088(    27)     0
      6  C        4   0.001150(     5)      2   0.002193(    17)      1   0.000205(    28)     0
      7  H        4  -0.000003(     6)      2   0.000033(    18)      6  -0.000094(    29)     0
      8  H        6   0.000049(     7)      4   0.000085(    19)      2  -0.000030(    30)     0
      9  H        6  -0.000003(     8)      4   0.000083(    20)      8   0.000133(    31)     0
     10  C        6   0.066892(     9)      4   0.005517(    21)      8  -0.000618(    32)     0
     11  H       10   0.000076(    10)      6  -0.000655(    22)      4   0.000706(    33)     0
     12  O       10   0.000339(    11)      6   0.001159(    23)     11   0.000191(    34)     0
     13  O       12   0.000214(    12)     10   0.000196(    24)      1  -0.000395(    35)     0
     14  H       13   0.000028(    13)     12  -0.000013(    25)     10  -0.000009(    36)     0
 -----------------------------------------------------------------------------------------------
 Internal  Forces:  Max     0.066892100 RMS     0.011203508
 Force constants in internal coordinates: 
                1             2             3             4             5 
      1  0.630985D+00
      2  0.000000D+00  0.344113D+00
      3 -0.525775D-01  0.000000D+00  0.727881D+00
      4  0.000000D+00  0.000000D+00  0.000000D+00  0.347895D+00
      5 -0.239499D+00  0.000000D+00  0.239160D+00  0.000000D+00  0.856913D+00
      6  0.000000D+00  0.000000D+00  0.000000D+00  0.000000D+00  0.000000D+00
      7  0.000000D+00  0.000000D+00  0.000000D+00  0.000000D+00  0.000000D+00
      8  0.000000D+00  0.000000D+00  0.000000D+00  0.000000D+00  0.000000D+00
      9 -0.108797D+00  0.000000D+00 -0.890312D-01  0.000000D+00  0.266272D-01
     10  0.000000D+00  0.000000D+00  0.000000D+00  0.000000D+00  0.000000D+00
     11  0.000000D+00  0.000000D+00  0.000000D+00  0.000000D+00  0.000000D+00
     12  0.000000D+00  0.000000D+00  0.000000D+00  0.000000D+00  0.000000D+00
     13  0.000000D+00  0.000000D+00  0.000000D+00  0.000000D+00  0.000000D+00
     14 -0.519810D-01  0.000000D+00 -0.367856D-01  0.000000D+00  0.207638D-01
     15 -0.259975D+00  0.000000D+00  0.883788D+00  0.000000D+00  0.898309D+00
     16  0.000000D+00  0.000000D+00  0.000000D+00  0.000000D+00  0.000000D+00
     17 -0.891664D+00  0.000000D+00  0.119961D+01  0.000000D+00  0.170674D+01
     18  0.000000D+00  0.000000D+00  0.000000D+00  0.000000D+00  0.000000D+00
     19 -0.468303D-03  0.000000D+00 -0.313804D-04  0.000000D+00  0.511010D-03
     20  0.544623D-03  0.000000D+00  0.364945D-04  0.000000D+00 -0.594290D-03
     21 -0.114408D+01  0.000000D+00  0.875930D+00  0.000000D+00  0.168383D+01
     22  0.334873D-01  0.000000D+00  0.383848D-01  0.000000D+00  0.248130D-02
     23  0.412313D-01  0.000000D+00  0.454055D-01  0.000000D+00  0.105124D-02
     24  0.000000D+00  0.000000D+00  0.000000D+00  0.000000D+00  0.000000D+00
     25  0.000000D+00  0.000000D+00  0.000000D+00  0.000000D+00  0.000000D+00
     26 -0.104137D-01  0.000000D+00  0.443792D-02  0.000000D+00  0.169086D-01
     27  0.000000D+00  0.000000D+00 -0.318431D-02  0.000000D+00 -0.343821D-02
     28  0.117195D+00  0.000000D+00 -0.344801D+00  0.000000D+00 -0.332433D+00
     29  0.000000D+00  0.000000D+00  0.000000D+00  0.000000D+00  0.000000D+00
     30  0.393359D+00  0.000000D+00 -0.737317D+00  0.000000D+00 -0.864469D+00
     31 -0.288517D-03  0.000000D+00 -0.193332D-04  0.000000D+00  0.314829D-03
     32  0.393515D+00  0.000000D+00 -0.737306D+00  0.000000D+00 -0.864640D+00
     33 -0.965069D-01  0.000000D+00 -0.376662D-01  0.000000D+00  0.716210D-01
     34 -0.585045D-01  0.000000D+00 -0.159293D-01  0.000000D+00  0.508734D-01
     35  0.103341D-01  0.000000D+00  0.155541D-01  0.000000D+00  0.477014D-02
     36  0.000000D+00  0.000000D+00  0.000000D+00  0.000000D+00  0.000000D+00
                6             7             8             9            10 
      6  0.342412D+00
      7  0.000000D+00  0.350798D+00
      8  0.000000D+00  0.000000D+00  0.342186D+00
      9  0.000000D+00  0.000000D+00  0.000000D+00  0.172606D+00
     10  0.000000D+00  0.000000D+00  0.000000D+00  0.000000D+00  0.340497D+00
     11  0.000000D+00  0.000000D+00  0.000000D+00  0.000000D+00  0.000000D+00
     12  0.000000D+00  0.000000D+00  0.000000D+00  0.000000D+00  0.000000D+00
     13  0.000000D+00  0.000000D+00  0.000000D+00  0.000000D+00  0.000000D+00
     14  0.000000D+00  0.000000D+00  0.000000D+00  0.432858D-01  0.000000D+00
     15  0.000000D+00  0.000000D+00  0.000000D+00 -0.258445D+00  0.000000D+00
     16  0.000000D+00  0.000000D+00  0.000000D+00  0.000000D+00  0.000000D+00
     17  0.000000D+00  0.000000D+00  0.000000D+00 -0.424685D-01  0.000000D+00
     18  0.000000D+00  0.000000D+00  0.000000D+00  0.000000D+00  0.000000D+00
     19  0.000000D+00  0.000000D+00  0.000000D+00  0.000000D+00  0.000000D+00
     20  0.000000D+00  0.000000D+00  0.000000D+00  0.000000D+00  0.000000D+00
     21  0.000000D+00  0.000000D+00  0.000000D+00  0.272516D+00  0.000000D+00
     22  0.000000D+00  0.000000D+00  0.000000D+00 -0.469752D-01  0.000000D+00
     23  0.000000D+00  0.000000D+00  0.000000D+00 -0.554261D-01  0.000000D+00
     24  0.000000D+00  0.000000D+00  0.000000D+00  0.000000D+00  0.000000D+00
     25  0.000000D+00  0.000000D+00  0.000000D+00  0.000000D+00  0.000000D+00
     26  0.000000D+00  0.000000D+00  0.000000D+00 -0.667532D-02  0.000000D+00
     27  0.000000D+00  0.000000D+00  0.000000D+00  0.413890D-02  0.000000D+00
     28  0.000000D+00  0.000000D+00  0.000000D+00  0.954407D-02  0.000000D+00
     29  0.000000D+00  0.000000D+00  0.000000D+00  0.000000D+00  0.000000D+00
     30  0.000000D+00  0.000000D+00  0.000000D+00  0.100959D-02  0.000000D+00
     31  0.000000D+00  0.000000D+00  0.000000D+00  0.000000D+00  0.000000D+00
     32  0.000000D+00  0.000000D+00  0.000000D+00  0.100959D-02  0.000000D+00
     33  0.000000D+00  0.000000D+00  0.000000D+00  0.405524D-01  0.000000D+00
     34  0.000000D+00  0.000000D+00  0.000000D+00  0.156090D-01  0.000000D+00
     35  0.000000D+00  0.000000D+00  0.000000D+00 -0.193169D-01  0.000000D+00
     36  0.000000D+00  0.000000D+00  0.000000D+00  0.000000D+00  0.000000D+00
               11            12            13            14            15 
     11  0.508040D+00
     12  0.000000D+00  0.407175D+00
     13  0.000000D+00  0.000000D+00  0.539946D+00
     14  0.000000D+00  0.000000D+00  0.000000D+00  0.316481D+00
     15  0.000000D+00  0.000000D+00  0.000000D+00 -0.174236D+00  0.371592D+01
     16  0.000000D+00  0.000000D+00  0.000000D+00  0.000000D+00  0.159653D+00
     17  0.000000D+00  0.000000D+00  0.000000D+00 -0.491152D-01  0.460019D+01
     18  0.000000D+00  0.000000D+00  0.000000D+00  0.000000D+00  0.200512D-05
     19  0.000000D+00  0.000000D+00  0.000000D+00  0.000000D+00  0.473130D-02
     20  0.000000D+00  0.000000D+00  0.000000D+00  0.000000D+00  0.292482D-02
     21  0.000000D+00  0.000000D+00  0.000000D+00  0.100371D+00  0.357181D+01
     22  0.000000D+00  0.000000D+00  0.000000D+00 -0.834566D-02  0.535097D-01
     23  0.000000D+00  0.000000D+00  0.000000D+00  0.983513D-02  0.108388D+00
     24  0.000000D+00  0.000000D+00  0.000000D+00  0.000000D+00  0.000000D+00
     25  0.000000D+00  0.000000D+00  0.000000D+00  0.000000D+00  0.000000D+00
     26  0.000000D+00  0.000000D+00  0.000000D+00  0.808749D-02 -0.815073D-02
     27  0.000000D+00  0.000000D+00  0.000000D+00  0.000000D+00 -0.186044D-01
     28  0.000000D+00  0.000000D+00  0.000000D+00  0.146085D+00 -0.130698D+01
     29  0.000000D+00  0.000000D+00  0.000000D+00  0.000000D+00 -0.833552D-03
     30  0.000000D+00  0.000000D+00  0.000000D+00  0.165554D+00 -0.276165D+01
     31  0.000000D+00  0.000000D+00  0.000000D+00  0.000000D+00 -0.683822D-03
     32  0.000000D+00  0.000000D+00  0.000000D+00  0.165554D+00 -0.276062D+01
     33  0.000000D+00  0.000000D+00  0.000000D+00 -0.146944D-03 -0.110550D-01
     34  0.000000D+00  0.000000D+00  0.000000D+00  0.251990D-02  0.204646D-01
     35  0.000000D+00  0.000000D+00  0.000000D+00  0.000000D+00  0.344171D-01
     36  0.000000D+00  0.000000D+00  0.000000D+00  0.000000D+00  0.000000D+00
               16            17            18            19            20 
     16  0.319714D+00
     17  0.000000D+00  0.822647D+01
     18  0.000000D+00  0.159638D+00  0.319780D+00
     19  0.000000D+00  0.606369D-02  0.000000D+00  0.331352D+00
     20  0.000000D+00  0.127318D-02  0.000000D+00  0.145958D+00  0.361945D+00
     21  0.000000D+00  0.722098D+01  0.000000D+00 -0.261307D-01  0.642229D-01
     22  0.000000D+00  0.897914D-03  0.000000D+00  0.000000D+00  0.000000D+00
     23  0.000000D+00  0.534576D-01  0.000000D+00  0.000000D+00  0.000000D+00
     24  0.000000D+00  0.000000D+00  0.000000D+00  0.000000D+00  0.000000D+00
     25  0.000000D+00  0.000000D+00  0.000000D+00  0.000000D+00  0.000000D+00
     26 -0.151200D-03  0.245559D-01  0.176553D-04  0.924610D-03 -0.332847D-02
     27 -0.346618D-02 -0.177369D-01  0.000000D+00  0.000000D+00  0.000000D+00
     28 -0.314518D-02 -0.172924D+01  0.263507D-04 -0.828892D-03 -0.552251D-02
     29 -0.157259D-02  0.496760D-02  0.264528D-02  0.000000D+00  0.000000D+00
     30  0.000000D+00 -0.413417D+01  0.428555D-02 -0.520023D-03 -0.369211D-02
     31  0.000000D+00  0.870143D-03  0.142852D-02 -0.378448D-01  0.138666D-01
     32  0.000000D+00 -0.413472D+01  0.142852D-02 -0.388206D-01 -0.569651D-01
     33  0.000000D+00  0.273797D+00  0.000000D+00 -0.478373D-02  0.556334D-02
     34  0.000000D+00  0.209122D+00  0.000000D+00 -0.239187D-02  0.278167D-02
     35  0.000000D+00  0.274698D-01  0.000000D+00  0.000000D+00  0.000000D+00
     36  0.000000D+00  0.000000D+00  0.000000D+00  0.000000D+00  0.000000D+00
               21            22            23            24            25 
     21  0.793686D+01
     22 -0.125324D+00  0.301016D+00
     23 -0.894843D-01  0.476875D-01  0.463927D+00
     24  0.000000D+00  0.000000D+00  0.000000D+00  0.250000D+00
     25  0.000000D+00  0.000000D+00  0.000000D+00  0.000000D+00  0.160000D+00
     26  0.386455D-01  0.231868D-01 -0.312249D-01  0.000000D+00  0.000000D+00
     27 -0.142842D-01  0.000000D+00  0.000000D+00  0.000000D+00  0.000000D+00
     28 -0.141401D+01  0.603506D-02  0.786172D-01  0.000000D+00  0.000000D+00
     29  0.000000D+00  0.000000D+00  0.000000D+00  0.000000D+00  0.000000D+00
     30 -0.368131D+01  0.220907D-01  0.126360D+00  0.000000D+00  0.000000D+00
     31  0.768594D-01  0.000000D+00  0.000000D+00  0.000000D+00  0.000000D+00
     32 -0.367861D+01  0.220907D-01  0.126360D+00  0.000000D+00  0.000000D+00
     33  0.390821D+00  0.763255D-02 -0.234613D-02  0.000000D+00  0.000000D+00
     34  0.257075D+00  0.350893D-01 -0.810031D-01  0.000000D+00  0.000000D+00
     35 -0.225983D-01  0.220551D-01  0.386820D-01  0.000000D+00  0.000000D+00
     36  0.000000D+00  0.000000D+00  0.000000D+00  0.000000D+00  0.000000D+00
               26            27            28            29            30 
     26  0.141281D+00
     27  0.124642D-01  0.107435D+00
     28  0.949237D-01 -0.734800D-01  0.152198D+01
     29 -0.504116D-03 -0.220241D-01  0.437213D-01  0.138624D+00
     30  0.383788D-01 -0.210350D-01  0.225081D+01 -0.624495D-01  0.418154D+01
     31  0.142832D-02  0.000000D+00  0.199762D-02 -0.208165D-01  0.438869D-01
     32  0.352516D-01 -0.210350D-01  0.224797D+01 -0.208165D-01  0.409646D+01
     33 -0.887349D-03  0.000000D+00  0.251932D+00  0.000000D+00  0.402736D+00
     34 -0.921589D-02  0.000000D+00  0.197990D+00  0.000000D+00  0.316352D+00
     35  0.000000D+00  0.000000D+00  0.322662D-01  0.000000D+00  0.524194D-01
     36  0.000000D+00  0.000000D+00  0.000000D+00  0.000000D+00  0.000000D+00
               31            32            33            34            35 
     31  0.183859D+00
     32 -0.101551D+00  0.429714D+01
     33 -0.294722D-02  0.404335D+00  0.355407D+00
     34 -0.147361D-02  0.317151D+00  0.248517D+00  0.347503D+00
     35  0.000000D+00  0.524194D-01  0.195404D-01  0.180614D-01  0.623015D-01
     36  0.000000D+00  0.000000D+00  0.000000D+00  0.000000D+00  0.000000D+00
               36 
     36  0.872829D-02
 Leave Link  716 at Tue May 20 11:49:35 2025, MaxMem=  3758096384 cpu:               0.2 elap:               0.0
 (Enter /gpfs/fs1/soft/bebop/software/custom-built/gaussian/16-c.02/g16/l103.exe)

 GradGradGradGradGradGradGradGradGradGradGradGradGradGradGradGradGradGrad
 Berny optimization.
 Search for a local minimum.
 Step number   1 out of a maximum of   46
 All quantities printed in internal units (Hartrees-Bohrs-Radians)
 Second derivative matrix not updated -- first step.
 ITU=  0
     Eigenvalues ---    0.00873   0.03482   0.05351   0.05589   0.08467
     Eigenvalues ---    0.08999   0.13013   0.16000   0.18316   0.19768
     Eigenvalues ---    0.21577   0.25000   0.25530   0.28232   0.29822
     Eigenvalues ---    0.30100   0.34050   0.34219   0.34241   0.34411
     Eigenvalues ---    0.34790   0.35080   0.38140   0.40718   0.41523
     Eigenvalues ---    0.46565   0.47629   0.49851   0.50804   0.52309
[...]
 Alpha virt. eigenvalues --    2.03552   2.05427   2.10350   2.11640   2.17331
 Alpha virt. eigenvalues --    2.18203   2.24253   2.26710   2.27451   2.29734
 Alpha virt. eigenvalues --    2.38957   2.42887   2.46449   2.48289   2.52112
 Alpha virt. eigenvalues --    2.53190   2.55543   2.59976   2.64685   2.71836
 Alpha virt. eigenvalues --    2.78723   2.84016   2.86177   2.86525   2.93025
 Alpha virt. eigenvalues --    3.02187   3.03114   3.06639   3.14203   3.18139
 Alpha virt. eigenvalues --    3.23065   3.36018   3.43313   3.56415   3.65464
 Alpha virt. eigenvalues --    3.96565
  Beta  occ. eigenvalues --  -19.33403 -19.31722 -10.35940 -10.30674 -10.29591
  Beta  occ. eigenvalues --  -10.29186 -10.28425  -1.23942  -1.02585  -0.91331
  Beta  occ. eigenvalues --   -0.81816  -0.75144  -0.66735  -0.64762  -0.61385
  Beta  occ. eigenvalues --   -0.59060  -0.56895  -0.53844  -0.50042  -0.47671
  Beta  occ. eigenvalues --   -0.46000  -0.44525  -0.43547  -0.38060  -0.36094
  Beta  occ. eigenvalues --   -0.31152
  Beta virt. eigenvalues --    0.01706   0.04157   0.12588   0.14613   0.16551
  Beta virt. eigenvalues --    0.17339   0.18447   0.20715   0.22456   0.22801
  Beta virt. eigenvalues --    0.24998   0.29569   0.35523   0.39370   0.44758
  Beta virt. eigenvalues --    0.46228   0.48336   0.52388   0.52934   0.55567
  Beta virt. eigenvalues --    0.57549   0.59242   0.61333   0.64217   0.65688
  Beta virt. eigenvalues --    0.67054   0.68440   0.72259   0.72557   0.73931
  Beta virt. eigenvalues --    0.74424   0.75516   0.76896   0.79710   0.80581
  Beta virt. eigenvalues --    0.83905   0.85565   0.87018   0.90852   0.91023
  Beta virt. eigenvalues --    0.98077   1.01954   1.03753   1.08444   1.12211
  Beta virt. eigenvalues --    1.19376   1.19793   1.22558   1.29479   1.34993
  Beta virt. eigenvalues --    1.36989   1.41667   1.46254   1.48739   1.51417
  Beta virt. eigenvalues --    1.60331   1.67465   1.69576   1.71266   1.72121
  Beta virt. eigenvalues --    1.74266   1.77071   1.78574   1.82764   1.83646
  Beta virt. eigenvalues --    1.87045   1.88850   1.92200   1.94508   1.96877
  Beta virt. eigenvalues --    2.01331   2.04089   2.06024   2.10706   2.12402
  Beta virt. eigenvalues --    2.18033   2.18709   2.25623   2.27192   2.27782
  Beta virt. eigenvalues --    2.31252   2.39971   2.43788   2.47242   2.48761
  Beta virt. eigenvalues --    2.52599   2.53466   2.56359   2.61028   2.65422
  Beta virt. eigenvalues --    2.72168   2.79251   2.84418   2.86696   2.86960
  Beta virt. eigenvalues --    2.93967   3.02219   3.03712   3.07024   3.14611
  Beta virt. eigenvalues --    3.18358   3.23493   3.36262   3.43555   3.56756
  Beta virt. eigenvalues --    3.65519   3.96667
          Condensed to atoms (all electrons):
               1          2          3          4          5          6
     1  C    5.044633   0.340215   0.404309  -0.054282  -0.047816  -0.087022
     2  C    0.340215   4.977329  -0.046144   0.500322   0.426091  -0.059689
     3  H    0.404309  -0.046144   0.627845   0.005604  -0.002098  -0.000211
     4  C   -0.054282   0.500322   0.005604   4.819766  -0.048631   0.476915
     5  H   -0.047816   0.426091  -0.002098  -0.048631   0.632249   0.009801
     6  C   -0.087022  -0.059689  -0.000211   0.476915   0.009801   5.099436
     7  H    0.009068  -0.045493  -0.000300   0.420118  -0.007739  -0.048753
     8  H   -0.009563  -0.022652   0.000617   0.000967  -0.000332   0.368726
     9  H    0.003773   0.009684  -0.000037  -0.024358  -0.000170   0.379025
    10  C    0.522200  -0.050616  -0.024430  -0.037281   0.008192  -0.015642
    11  H   -0.042512   0.007961  -0.010907   0.003516  -0.000256  -0.006401
    12  O   -0.046239  -0.002323   0.002803  -0.004517   0.000014  -0.042700
    13  O    0.002320  -0.000629  -0.000060   0.000372   0.000013   0.004563
    14  H   -0.000246   0.000052   0.000000   0.000032  -0.000002  -0.000746
               7          8          9         10         11         12
     1  C    0.009068  -0.009563   0.003773   0.522200  -0.042512  -0.046239
     2  C   -0.045493  -0.022652   0.009684  -0.050616   0.007961  -0.002323
     3  H   -0.000300   0.000617  -0.000037  -0.024430  -0.010907   0.002803
     4  C    0.420118   0.000967  -0.024358  -0.037281   0.003516  -0.004517
     5  H   -0.007739  -0.000332  -0.000170   0.008192  -0.000256   0.000014
     6  C   -0.048753   0.368726   0.379025  -0.015642  -0.006401  -0.042700
     7  H    0.637922   0.004429  -0.009460   0.003196  -0.000008  -0.000409
     8  H    0.004429   0.599700  -0.035150   0.013780   0.005330  -0.007202
     9  H   -0.009460  -0.035150   0.638170   0.000079  -0.000185   0.000335
    10  C    0.003196   0.013780   0.000079   4.862852   0.395525   0.278948
    11  H   -0.000008   0.005330  -0.000185   0.395525   0.632127  -0.037696
    12  O   -0.000409  -0.007202   0.000335   0.278948  -0.037696   7.985132
    13  O    0.000011   0.000014  -0.000008  -0.052180   0.009107   0.099092
    14  H   -0.000003   0.000115  -0.000021   0.002188   0.002200  -0.017782
              13         14
     1  C    0.002320  -0.000246
     2  C   -0.000629   0.000052
     3  H   -0.000060   0.000000
     4  C    0.000372   0.000032
     5  H    0.000013  -0.000002
     6  C    0.004563  -0.000746
     7  H    0.000011  -0.000003
     8  H    0.000014   0.000115
     9  H   -0.000008  -0.000021
    10  C   -0.052180   0.002188
    11  H    0.009107   0.002200
    12  O    0.099092  -0.017782
    13  O    7.774208   0.311979
    14  H    0.311979   0.503225
          Atomic-Atomic Spin Densities.
               1          2          3          4          5          6
     1  C   -0.020787  -0.064988   0.006269   0.012117   0.000029  -0.036305
     2  C   -0.064988   0.590217  -0.007286   0.006138   0.006305  -0.022981
     3  H    0.006269  -0.007286   0.014396   0.000576  -0.000058  -0.002281
     4  C    0.012117   0.006138   0.000576  -0.262819  -0.000291  -0.033257
     5  H    0.000029   0.006305  -0.000058  -0.000291  -0.028600  -0.000342
     6  C   -0.036305  -0.022981  -0.002281  -0.033257  -0.000342   0.944904
     7  H   -0.000512  -0.004252  -0.000045   0.003885   0.000076  -0.002269
     8  H    0.006879  -0.000580   0.000383   0.001228   0.000015  -0.011377
     9  H    0.000362  -0.000419   0.000027   0.000142   0.000014  -0.002550
    10  C    0.045725  -0.012640  -0.004108   0.001923  -0.000476  -0.065982
    11  H   -0.001711   0.000100   0.000287  -0.000183   0.000012   0.000606
    12  O    0.001956   0.003816   0.000389   0.004863  -0.000002  -0.043912
    13  O    0.000163  -0.000131  -0.000012  -0.000194  -0.000001   0.002371
    14  H   -0.000041  -0.000025  -0.000003   0.000006   0.000000   0.000430
               7          8          9         10         11         12
     1  C   -0.000512   0.006879   0.000362   0.045725  -0.001711   0.001956
     2  C   -0.004252  -0.000580  -0.000419  -0.012640   0.000100   0.003816
     3  H   -0.000045   0.000383   0.000027  -0.004108   0.000287   0.000389
     4  C    0.003885   0.001228   0.000142   0.001923  -0.000183   0.004863
     5  H    0.000076   0.000015   0.000014  -0.000476   0.000012  -0.000002
     6  C   -0.002269  -0.011377  -0.002550  -0.065982   0.000606  -0.043912
     7  H    0.021797  -0.000553  -0.000624  -0.000470   0.000001  -0.000169
     8  H   -0.000553  -0.033127   0.004145   0.005123  -0.000085   0.002074
     9  H   -0.000624   0.004145  -0.033142   0.002042   0.000008   0.000514
    10  C   -0.000470   0.005123   0.002042   0.183555   0.002370  -0.012078
    11  H    0.000001  -0.000085   0.000008   0.002370  -0.009986  -0.000051
    12  O   -0.000169   0.002074   0.000514  -0.012078  -0.000051   0.045862
    13  O    0.000004  -0.000108  -0.000031  -0.000459   0.000414  -0.004413
    14  H    0.000002  -0.000020  -0.000023   0.000424  -0.000048  -0.000839
              13         14
     1  C    0.000163  -0.000041
     2  C   -0.000131  -0.000025
     3  H   -0.000012  -0.000003
     4  C   -0.000194   0.000006
     5  H   -0.000001   0.000000
     6  C    0.002371   0.000430
     7  H    0.000004   0.000002
     8  H   -0.000108  -0.000020
     9  H   -0.000031  -0.000023
    10  C   -0.000459   0.000424
    11  H    0.000414  -0.000048
    12  O   -0.004413  -0.000839
    13  O    0.017556   0.000217
    14  H    0.000217  -0.000322
 Mulliken charges and spin densities:
               1          2
     1  C   -0.038838  -0.050846
     2  C   -0.034108   0.493275
     3  H    0.043009   0.008533
     4  C   -0.058543  -0.265865
     5  H    0.030684  -0.023317
     6  C   -0.077302   0.727055
     7  H    0.037420   0.016869
     8  H    0.081221  -0.026001
     9  H    0.038322  -0.029534
    10  C    0.093186   0.144951
    11  H    0.042197  -0.008265
    12  O   -0.207456  -0.001989
    13  O   -0.148802   0.015376
    14  H    0.199009  -0.000242
 Sum of Mulliken charges =  -0.00000   1.00000
 Mulliken charges and spin densities with hydrogens summed into heavy atoms:
               1          2
     1  C    0.004171  -0.042313
     2  C   -0.003424   0.469957
     4  C   -0.021123  -0.248996
     6  C    0.042242   0.671520
    10  C    0.135383   0.136686
    12  O   -0.207456  -0.001989
    13  O    0.050207   0.015135
 Electronic spatial extent (au):  <R**2>=            734.4598
 Charge=             -0.0000 electrons
 Dipole moment (field-independent basis, Debye):
    X=             -0.5557    Y=              0.9089    Z=              1.1001  Tot=              1.5314
 Quadrupole moment (field-independent basis, Debye-Ang):
   XX=            -37.2910   YY=            -39.0926   ZZ=            -41.3745
   XY=             -4.6872   XZ=             -3.1957   YZ=             -1.6099
 Traceless Quadrupole moment (field-independent basis, Debye-Ang):
   XX=              1.9617   YY=              0.1601   ZZ=             -2.1218
   XY=             -4.6872   XZ=             -3.1957   YZ=             -1.6099
 Octapole moment (field-independent basis, Debye-Ang**2):
  XXX=            -36.0961  YYY=              3.5172  ZZZ=             -0.4029  XYY=             -6.6592
  XXY=             12.7742  XXZ=             -5.7785  XZZ=             -5.2044  YZZ=             -0.1697
  YYZ=             -0.2913  XYZ=              0.6683
 Hexadecapole moment (field-independent basis, Debye-Ang**3):
 XXXX=           -505.6858 YYYY=           -241.4502 ZZZZ=           -114.3618 XXXY=            -48.1844
 XXXZ=            -10.2916 YYYX=            -11.4235 YYYZ=             -8.1979 ZZZX=              1.0568
 ZZZY=             -2.9920 XXYY=           -121.9027 XXZZ=           -112.2817 YYZZ=            -59.1831
 XXYZ=             -6.1704 YYXZ=             -1.7421 ZZXY=             -2.0170
 N-N= 2.964051488982D+02 E-N=-1.397529271406D+03  KE= 3.417353593651D+02
                          Isotropic Fermi Contact Couplings
        Atom                 a.u.       MegaHertz       Gauss      10(-4) cm-1
     1  C(13)             -0.02703     -30.38249     -10.84123     -10.13451
     2  C(13)              0.08869      99.70712      35.57798      33.25872
     3  H(1)               0.00410      18.32773       6.53979       6.11347
     4  C(13)             -0.07370     -82.85484     -29.56467     -27.63740
     5  H(1)              -0.00716     -31.99611     -11.41701     -10.67276
     6  C(13)              0.19872     223.39498      79.71288      74.51654
     7  H(1)               0.00668      29.86384      10.65616       9.96150
     8  H(1)              -0.01022     -45.67272     -16.29716     -15.23478
     9  H(1)              -0.00811     -36.27122     -12.94247     -12.09878
    10  C(13)              0.02615      29.39636      10.48935       9.80557
    11  H(1)              -0.00261     -11.67938      -4.16749      -3.89582
    12  O(17)              0.15651     -94.87818     -33.85489     -31.64795
    13  O(17)             -0.00403       2.44168       0.87125       0.81446
    14  H(1)              -0.00017      -0.75909      -0.27086      -0.25321
 --------------------------------------------------------
       Center         ----  Spin Dipole Couplings  ----
                      3XX-RR        3YY-RR        3ZZ-RR
 --------------------------------------------------------
     1   Atom       -0.009016      0.007148      0.001868
     2   Atom        0.024297     -0.237858      0.213560
     3   Atom       -0.003474      0.008270     -0.004796
     4   Atom       -0.067490      0.102184     -0.034694
     5   Atom        0.011721     -0.016579      0.004857
     6   Atom        0.502150     -0.241035     -0.261114
     7   Atom       -0.002869      0.004317     -0.001448
     8   Atom       -0.020213     -0.026776      0.046989
     9   Atom       -0.008399      0.053307     -0.044908
    10   Atom       -0.049252      0.038577      0.010675
    11   Atom        0.001204     -0.005646      0.004443
    12   Atom       -0.022801     -0.004228      0.027029
    13   Atom        0.046160     -0.013656     -0.032503
    14   Atom        0.004890     -0.000133     -0.004758
 --------------------------------------------------------
                        XY            XZ            YZ
 --------------------------------------------------------
     1   Atom       -0.011130     -0.019780      0.004883
     2   Atom       -0.069626      0.349928     -0.076799
     3   Atom       -0.001830     -0.002659     -0.002385
     4   Atom       -0.007148     -0.155810      0.016551
     5   Atom       -0.027113     -0.010088      0.015073
     6   Atom        0.340787      0.329508      0.121367
     7   Atom       -0.005152     -0.006331      0.006445
     8   Atom        0.011069      0.010748     -0.031586
     9   Atom       -0.008153      0.016315     -0.001257
    10   Atom        0.078976      0.065154      0.118985
    11   Atom        0.010364     -0.011100     -0.001651
    12   Atom       -0.018148      0.003762      0.029156
    13   Atom        0.045911      0.016353      0.005772
    14   Atom       -0.002512      0.001451      0.000435
 --------------------------------------------------------


 ---------------------------------------------------------------------------------
              Anisotropic Spin Dipole Couplings in Principal Axis System
 ---------------------------------------------------------------------------------

       Atom             a.u.   MegaHertz   Gauss  10(-4) cm-1        Axes

              Baa    -0.0253    -3.389    -1.209    -1.131  0.8089  0.1942  0.5549
     1 C(13)  Bbb     0.0013     0.174     0.062     0.058  0.1845  0.8123 -0.5532
              Bcc     0.0240     3.216     1.147     1.073 -0.5582  0.5499  0.6213
 
              Baa    -0.2576   -34.565   -12.334   -11.530  0.4845  0.8462 -0.2219
     2 C(13)  Bbb    -0.2384   -31.990   -11.415   -10.671  0.6336 -0.5144 -0.5780
              Bcc     0.4960    66.555    23.748    22.200  0.6032 -0.1394  0.7853
 
              Baa    -0.0074    -3.975    -1.418    -1.326  0.6043  0.1878  0.7743
     3 H(1)   Bbb    -0.0014    -0.744    -0.266    -0.248  0.7886 -0.0024 -0.6149
              Bcc     0.0088     4.719     1.684     1.574 -0.1136  0.9822 -0.1496
 
              Baa    -0.2079   -27.894    -9.953    -9.304  0.7424 -0.0186  0.6697
     4 C(13)  Bbb     0.0868    11.644     4.155     3.884  0.4606  0.7401 -0.4900
              Bcc     0.1211    16.250     5.798     5.420 -0.4865  0.6723  0.5580
 
              Baa    -0.0347   -18.502    -6.602    -6.172  0.4582  0.8631 -0.2121
     5 H(1)   Bbb    -0.0022    -1.151    -0.411    -0.384  0.5089 -0.0591  0.8588
              Bcc     0.0368    19.653     7.013     6.556  0.7287 -0.5015 -0.4663
 
              Baa    -0.3854   -51.718   -18.454   -17.251 -0.4354  0.3205  0.8413
     6 C(13)  Bbb    -0.3705   -49.724   -17.743   -16.586 -0.1824  0.8837 -0.4310
              Bcc     0.7560   101.442    36.197    33.837  0.8816  0.3411  0.3263
 
              Baa    -0.0086    -4.566    -1.629    -1.523  0.7178 -0.0601  0.6937
     7 H(1)   Bbb    -0.0040    -2.108    -0.752    -0.703  0.5243  0.7022 -0.4817
              Bcc     0.0125     6.674     2.381     2.226 -0.4581  0.7095  0.5355
 
              Baa    -0.0462   -24.660    -8.799    -8.226 -0.4820  0.8114  0.3306
     8 H(1)   Bbb    -0.0130    -6.910    -2.466    -2.305  0.8725  0.4791  0.0960
              Bcc     0.0592    31.570    11.265    10.531  0.0805 -0.3347  0.9389
 
              Baa    -0.0512   -27.299    -9.741    -9.106 -0.3592 -0.0168  0.9331
     9 H(1)   Bbb    -0.0033    -1.771    -0.632    -0.591  0.9231  0.1408  0.3579
              Bcc     0.0545    29.070    10.373     9.697 -0.1374  0.9899 -0.0351
 
              Baa    -0.0979   -13.132    -4.686    -4.380 -0.5599  0.7045 -0.4362
    10 C(13)  Bbb    -0.0906   -12.159    -4.338    -4.056  0.7281  0.1672 -0.6648
              Bcc     0.1885    25.291     9.024     8.436  0.3954  0.6898  0.6065
 
              Baa    -0.0149    -7.949    -2.836    -2.651 -0.6588  0.6809 -0.3200
    11 H(1)   Bbb    -0.0022    -1.182    -0.422    -0.394  0.3230  0.6401  0.6971
              Bcc     0.0171     9.131     3.258     3.046  0.6795  0.3559 -0.6416
 
              Baa    -0.0400     2.893     1.032     0.965  0.7217  0.6190 -0.3098
    12 O(17)  Bbb    -0.0051     0.368     0.131     0.123  0.6855 -0.5772  0.4437
              Bcc     0.0451    -3.261    -1.164    -1.088 -0.0958  0.5326  0.8409
 
              Baa    -0.0400     2.898     1.034     0.967 -0.4812  0.7313  0.4835
    13 O(17)  Bbb    -0.0338     2.443     0.872     0.815  0.1094 -0.4971  0.8608
              Bcc     0.0738    -5.341    -1.906    -1.781  0.8698  0.4671  0.1592
 
              Baa    -0.0051    -2.729    -0.974    -0.910 -0.1847 -0.1776  0.9666
    14 H(1)   Bbb    -0.0009    -0.504    -0.180    -0.168  0.3355  0.9131  0.2319
              Bcc     0.0061     3.233     1.154     1.079  0.9238 -0.3671  0.1091
 

 ---------------------------------------------------------------------------------

 No NMR shielding tensors so no spin-rotation constants.
 Leave Link  601 at Tue May 20 11:51:53 2025, MaxMem=  3758096384 cpu:               0.8 elap:               0.2
 (Enter /gpfs/fs1/soft/bebop/software/custom-built/gaussian/16-c.02/g16/l9999.exe)
 Unable to Open any file for archive entry.
 1\1\GINC-CSED-0031\POpt\UwB97XD\def2SVP\C5H7O2(2)\COPAN\20-May-2025\1\
 \#P wb97xd/def2svp # SCF=(xqc) # POpt=() # int=ultrafine\\comment:\\0,
 2\C\C,1,R1\H,1,R2,2,A2\C,2,R3,1,A3,3,D3,0\H,2,R4,1,A4,4,D4,0\C,4,R5,2,
 A5,1,D5,0\H,4,R6,2,A6,6,D6,0\H,6,R7,4,A7,2,D7,0\H,6,R8,4,A8,8,D8,0\C,6
 ,R9,4,A9,8,D9,0\H,10,R10,6,A10,4,D10,0\O,10,R11,6,A11,11,D11,0\O,12,R1
 2,10,A12,1,D12,0\H,13,R13,12,A13,10,D13,0\\R1=1.43514116\R2=1.09348786
 \R3=1.38536474\R4=1.0901906\R5=1.40346951\R6=1.09513316\R7=1.08825682\
 R8=1.09512571\R10=1.0969656\R11=1.37243297\R12=1.43269779\R13=0.967020
 44\A2=123.40596995\A3=110.5834696\A4=125.02942837\A5=119.03135788\A6=1
 21.3319015\A7=123.54371719\A8=118.2275766\A9=89.37181205\A10=126.10302
 746\A11=75.07961382\A12=106.04915995\A13=99.6412528\D3=224.93032609\D4
 =177.35715213\D5=7.83912927\D6=183.4275052\D7=38.44414686\D8=156.62563
 477\D9=298.02282393\D10=158.30149209\D11=104.48491193\D12=128.10474789
 \D13=135.73344554\R9=2.23\\Version=ES64L-G16RevC.01\State=2-A\HF=-344.
 5712956\S2=0.784978\S2-1=0.\S2A=0.750408\RMSD=6.622e-09\RMSF=1.360e-02
 \Dipole=-0.2562061,-0.4903312,-0.2386233\Quadrupole=3.2299726,-3.79452
 49,0.5645523,1.8946065,1.3570593,1.8789845\PG=C01 [X(C5H7O2)]\\@
 The archive entry for this job was punched.


 HOW IS IT THAT THE SKY FEEDS THE STARS?

                           -- LUCRETIUS
 Job cpu time:       0 days  0 hours 13 minutes 14.0 seconds.
 Elapsed time:       0 days  0 hours  2 minutes 33.8 seconds.
 File lengths (MBytes):  RWF=     15 Int=      0 D2E=      0 Chk=      3 Scr=      1
 Normal termination of Gaussian 16 at Tue May 20 11:51:53 2025.
