 Entering Gaussian System, Link 0=g16
 Input=run.inp_2.23
 Output=run.out_2.23
 Initial command:
 /gpfs/fs1/soft/bebop/software/custom-built/gaussian/16-c.02/g16/l1.exe "/scratch/Gau-2175756.inp" -scrdir="/scratch/"
 Default CPUs for threads: 0-35
 Default is to use a total of  36 processors:
                               36 via shared-memory
                                1 via Linda
 Entering Link 1 = /gpfs/fs1/soft/bebop/software/custom-built/gaussian/16-c.02/g16/l1.exe PID=   2175757.
  
 Copyright (c) 1988-2019, Gaussian, Inc.  All Rights Reserved.
  
 This is part of the Gaussian(R) 16 program.  It is based on
 the Gaussian(R) 09 system (copyright 2009, Gaussian, Inc.),
 the Gaussian(R) 03 system (copyright 2003, Gaussian, Inc.),
 the Gaussian(R) 98 system (copyright 1998, Gaussian, Inc.),
 the Gaussian(R) 94 system (copyright 1995, Gaussian, Inc.),
 the Gaussian 92(TM) system (copyright 1992, Gaussian, Inc.),
 the Gaussian 90(TM) system (copyright 1990, Gaussian, Inc.),
 the Gaussian 88(TM) system (copyright 1988, Gaussian, Inc.),
 the Gaussian 86(TM) system (copyright 1986, Carnegie Mellon
 University), and the Gaussian 82(TM) system (copyright 1983,
 Carnegie Mellon University). Gaussian is a federally registered
 trademark of Gaussian, Inc.
  
 This software contains proprietary and confidential information,
 including trade secrets, belonging to Gaussian, Inc.
  
 This software is provided under written license and may be
 used, copied, transmitted, or stored only in accord with that
 written license.
  
 The following legend is applicable only to US Government
 contracts under FAR:
  
                    RESTRICTED RIGHTS LEGEND
  
 Use, reproduction and disclosure by the US Government is
 subject to restrictions as set forth in subparagraphs (a)
 and (c) of the Commercial Computer Software - Restricted
 Rights clause in FAR 52.227-19.
  
 Gaussian, Inc.
 340 Quinnipiac St., Bldg. 40, Wallingford CT 06492
  
  
 ---------------------------------------------------------------
 Warning -- This program may not be used in any manner that
 competes with the business of Gaussian, Inc. or will provide
 assistance to any competitor of Gaussian, Inc.  The licensee
 of this program is prohibited from giving any competitor of
 Gaussian, Inc. access to this program.  By using this program,
 the user acknowledges that Gaussian, Inc. is engaged in the
 business of creating and licensing software in the field of
 computational chemistry and represents and warrants to the
 licensee that it is not a competitor of Gaussian, Inc. and that
 it will not use this program in any manner prohibited above.
 ---------------------------------------------------------------
  

 Cite this work as:
 Gaussian 16, Revision C.01,
 M. J. Frisch, G. W. Trucks, H. B. Schlegel, G. E. Scuseria, 
 M. A. Robb, J. R. Cheeseman, G. Scalmani, V. Barone, 
 G. A. Petersson, H. Nakatsuji, X. Li, M. Caricato, A. V. Marenich, 
 J. Bloino, B. G. Janesko, R. Gomperts, B. Mennucci, H. P. Hratchian, 
 J. V. Ortiz, A. F. Izmaylov, J. L. Sonnenberg, D. Williams-Young, 
 F. Ding, F. Lipparini, F. Egidi, J. Goings, B. Peng, A. Petrone, 
 T. Henderson, D. Ranasinghe, V. G. Zakrzewski, J. Gao, N. Rega, 
 G. Zheng, W. Liang, M. Hada, M. Ehara, K. Toyota, R. Fukuda, 
 J. Hasegawa, M. Ishida, T. Nakajima, Y. Honda, O. Kitao, H. Nakai, 
 T. Vreven, K. Throssell, J. A. Montgomery, Jr., J. E. Peralta, 
 F. Ogliaro, M. J. Bearpark, J. J. Heyd, E. N. Brothers, K. N. Kudin, 
 V. N. Staroverov, T. A. Keith, R. Kobayashi, J. Normand, 
 K. Raghavachari, A. P. Rendell, J. C. Burant, S. S. Iyengar, 
 J. Tomasi, M. Cossi, J. M. Millam, M. Klene, C. Adamo, R. Cammi, 
 J. W. Ochterski, R. L. Martin, K. Morokuma, O. Farkas, 
 J. B. Foresman, and D. J. Fox, Gaussian, Inc., Wallingford CT, 2019.
 
 ******************************************
 Gaussian 16:  ES64L-G16RevC.01  3-Jul-2019
                20-May-2025 
 ******************************************
 %mem=28GB
 %NProcShared=6
 Will use up to    6 processors via shared memory.
 ----------------------------------------------------------------------
 #P wb97xd/def2svp # SCF=(xqc) # POpt=(CALCALL,TS,NOEIGEN,MAXCYCLES=60)
  # int=ultrafine
 ----------------------------------------------------------------------
 1/5=1,6=60,10=4,11=1,26=4,38=1/1,3;
 2/12=2,17=6,18=5,29=3,40=1/2;
 3/5=43,7=101,11=2,25=1,30=1,71=2,74=-58,75=-5,140=1/1,2,3;
 4//1;
 5/5=2,8=3,13=1,38=5/2,8;
 8/6=4,10=90,11=11/1;
 11/6=1,8=1,9=11,15=111,16=1/1,2,10;
 10/6=1,13=1/2;
 6/7=2,8=2,9=2,10=2,18=1,28=1/1;
 7/10=1,25=1/1,2,3,16;
 1/5=1,6=60,10=4,11=1,26=4/3(2);
 2/29=3/2;
 99//99;
 2/29=3/2;
 3/5=43,7=101,11=2,25=1,30=1,71=2,74=-58,75=-5,140=1/1,2,3;
 4/5=5,16=3,69=1/1;
 5/5=2,8=3,13=1,38=5/2,8;
 8/6=4,10=90,11=11/1;
 11/6=1,8=1,9=11,15=111,16=1/1,2,10;
 10/6=1,13=1/2;
 7/10=1,25=1/1,2,3,16;
 1/5=1,6=60,10=4,11=1,26=4/3(-8);
 2/29=3/2;
 6/7=2,8=2,9=2,10=2,18=1,19=2,28=1/1;
 99//99;
 Leave Link    1 at Tue May 20 12:07:55 2025, MaxMem=  3758096384 cpu:               0.5 elap:               0.0
 (Enter /gpfs/fs1/soft/bebop/software/custom-built/gaussian/16-c.02/g16/l101.exe)
 --------
 comment:
 --------
 Symbolic Z-matrix:
 Charge =  0 Multiplicity = 2
 C
 C                    1    R1
 H                    1    R2       2    A2
 C                    2    R3       1    A3       3    D3       0
 H                    2    R4       1    A4       4    D4       0
 C                    4    R5       2    A5       1    D5       0
 H                    4    R6       2    A6       6    D6       0
 H                    6    R7       4    A7       2    D7       0
 H                    6    R8       4    A8       8    D8       0
 C                    6    R9       4    A9       8    D9       0
 H                    10   R10      6    A10      4    D10      0
 O                    10   R11      6    A11      11   D11      0
 O                    12   R12      10   A12      1    D12      0
 H                    13   R13      12   A13      10   D13      0
       Variables:
  R1                    1.4235                   
  R2                    1.0935                   
  R3                    1.3994                   
  R4                    1.0904                   
  R5                    1.3843                   
  R6                    1.0947                   
  R7                    1.0866                   
  R8                    1.0951                   
  R10                   1.0958                   
  R11                   1.3664                   
  R12                   1.4288                   
  R13                   0.9671                   
  A2                  123.1813                   
  A3                  111.5326                   
  A4                  124.363                    
  A5                  119.1233                   
  A6                  121.2525                   
  A7                  124.3528                   
  A8                  118.429                    
  A9                   88.876                    
  A10                 130.1041                   
  A11                  72.1786                   
  A12                 106.6501                   
  A13                  99.6035                   
  D3                  218.9316                   
  D4                  176.4374                   
  D5                   10.9203                   
  D6                  182.864                    
  D7                   29.307                    
  D8                  161.0307                   
  D9                  305.911                    
  D10                 158.4631                   
  D11                 101.892                    
  D12                 138.5985                   
  D13                 138.8557                   
  R9                    2.3                      
 
 ITRead=  0  0  0  0  0  0  0  0  0  0  0  0  0  0
 MicOpt= -1 -1 -1 -1 -1 -1 -1 -1 -1 -1 -1 -1 -1 -1
 NAtoms=     14 NQM=       14 NQMF=       0 NMMI=      0 NMMIF=      0
                NMic=       0 NMicF=      0.
                    Isotopes and Nuclear Properties:
 (Nuclear quadrupole moments (NQMom) in fm**2, nuclear magnetic moments (NMagM)
  in nuclear magnetons)

  Atom         1           2           3           4           5           6           7           8           9          10
 IAtWgt=          12          12           1          12           1          12           1           1           1          12
 AtmWgt=  12.0000000  12.0000000   1.0078250  12.0000000   1.0078250  12.0000000   1.0078250   1.0078250   1.0078250  12.0000000
 NucSpn=           0           0           1           0           1           0           1           1           1           0
 AtZEff=  -0.0000000  -0.0000000  -0.0000000  -0.0000000  -0.0000000  -0.0000000  -0.0000000  -0.0000000  -0.0000000  -0.0000000
 NQMom=    0.0000000   0.0000000   0.0000000   0.0000000   0.0000000   0.0000000   0.0000000   0.0000000   0.0000000   0.0000000
 NMagM=    0.0000000   0.0000000   2.7928460   0.0000000   2.7928460   0.0000000   2.7928460   2.7928460   2.7928460   0.0000000
 AtZNuc=   6.0000000   6.0000000   1.0000000   6.0000000   1.0000000   6.0000000   1.0000000   1.0000000   1.0000000   6.0000000

  Atom        11          12          13          14
 IAtWgt=           1          16          16           1
 AtmWgt=   1.0078250  15.9949146  15.9949146   1.0078250
 NucSpn=           1           0           0           1
 AtZEff=  -0.0000000  -0.0000000  -0.0000000  -0.0000000
 NQMom=    0.0000000   0.0000000   0.0000000   0.0000000
 NMagM=    2.7928460   0.0000000   0.0000000   2.7928460
 AtZNuc=   1.0000000   8.0000000   8.0000000   1.0000000
 Leave Link  101 at Tue May 20 12:07:55 2025, MaxMem=  3758096384 cpu:               0.6 elap:               0.1
 (Enter /gpfs/fs1/soft/bebop/software/custom-built/gaussian/16-c.02/g16/l103.exe)

 GradGradGradGradGradGradGradGradGradGradGradGradGradGradGradGradGradGrad
 Berny optimization.
 Initialization pass.
                       ----------------------------
                       !    Initial Parameters    !
                       ! (Angstroms and Degrees)  !
 ----------------------                            ----------------------
 !      Name          Value   Derivative information (Atomic Units)     !
 ------------------------------------------------------------------------
 !       R1          1.4235   calculate D2E/DX2 analytically            !
 !       R2          1.0935   calculate D2E/DX2 analytically            !
 !       R3          1.3994   calculate D2E/DX2 analytically            !
 !       R4          1.0904   calculate D2E/DX2 analytically            !
 !       R5          1.3843   calculate D2E/DX2 analytically            !
 !       R6          1.0947   calculate D2E/DX2 analytically            !
 !       R7          1.0866   calculate D2E/DX2 analytically            !
 !       R8          1.0951   calculate D2E/DX2 analytically            !
 !       R10         1.0958   calculate D2E/DX2 analytically            !
 !       R11         1.3664   calculate D2E/DX2 analytically            !
 !       R12         1.4288   calculate D2E/DX2 analytically            !
 !       R13         0.9671   calculate D2E/DX2 analytically            !
 !       A2        123.1813   calculate D2E/DX2 analytically            !
 !       A3        111.5326   calculate D2E/DX2 analytically            !
 !       A4        124.363    calculate D2E/DX2 analytically            !
 !       A5        119.1233   calculate D2E/DX2 analytically            !
 !       A6        121.2525   calculate D2E/DX2 analytically            !
 !       A7        124.3528   calculate D2E/DX2 analytically            !
 !       A8        118.429    calculate D2E/DX2 analytically            !
 !       A9         88.876    calculate D2E/DX2 analytically            !
 !       A10       130.1041   calculate D2E/DX2 analytically            !
 !       A11        72.1786   calculate D2E/DX2 analytically            !
 !       A12       106.6501   calculate D2E/DX2 analytically            !
 !       A13        99.6035   calculate D2E/DX2 analytically            !
 !       D3        218.9316   calculate D2E/DX2 analytically            !
 !       D4        176.4374   calculate D2E/DX2 analytically            !
 !       D5         10.9203   calculate D2E/DX2 analytically            !
 !       D6        182.864    calculate D2E/DX2 analytically            !
 !       D7         29.307    calculate D2E/DX2 analytically            !
 !       D8        161.0307   calculate D2E/DX2 analytically            !
 !       D9        305.911    calculate D2E/DX2 analytically            !
 !       D10       158.4631   calculate D2E/DX2 analytically            !
 !       D11       101.892    calculate D2E/DX2 analytically            !
 !       D12       138.5985   calculate D2E/DX2 analytically            !
 !       D13       138.8557   calculate D2E/DX2 analytically            !
 !       R9          2.3      calculate D2E/DX2 analytically            !
 ------------------------------------------------------------------------
 Trust Radius=3.00D-01 FncErr=1.00D-07 GrdErr=1.00D-06 EigMax=2.50D+02 EigMin=1.00D-04
 Number of steps in this run=     60 maximum allowed number of steps=    100.
 Search for a saddle point of order  1.
 GradGradGradGradGradGradGradGradGradGradGradGradGradGradGradGradGradGrad

 Leave Link  103 at Tue May 20 12:07:55 2025, MaxMem=  3758096384 cpu:               0.1 elap:               0.0
 (Enter /gpfs/fs1/soft/bebop/software/custom-built/gaussian/16-c.02/g16/l202.exe)
 ---------------------------------------------------------------------------------------------------
                            Z-MATRIX (ANGSTROMS AND DEGREES)
   CD    Cent   Atom    N1       Length/X        N2       Alpha/Y        N3        Beta/Z          J
 ---------------------------------------------------------------------------------------------------
      1      1  C 
      2      2  C        1   1.423500(     1)
      3      3  H        1   1.093500(     2)      2  123.181(    14)
      4      4  C        2   1.399400(     3)      1  111.533(    15)      3  218.932(    26)      0
      5      5  H        2   1.090400(     4)      1  124.363(    16)      4  176.437(    27)      0
      6      6  C        4   1.384300(     5)      2  119.123(    17)      1   10.920(    28)      0
      7      7  H        4   1.094700(     6)      2  121.252(    18)      6  182.864(    29)      0
      8      8  H        6   1.086600(     7)      4  124.353(    19)      2   29.307(    30)      0
      9      9  H        6   1.095100(     8)      4  118.429(    20)      8  161.031(    31)      0
     10     10  C        6   2.300000(     9)      4   88.876(    21)      8  305.911(    32)      0
     11     11  H       10   1.095800(    10)      6  130.104(    22)      4  158.463(    33)      0
     12     12  O       10   1.366400(    11)      6   72.179(    23)     11  101.892(    34)      0
     13     13  O       12   1.428800(    12)     10  106.650(    24)      1  138.599(    35)      0
     14     14  H       13   0.967100(    13)     12   99.603(    25)     10  138.856(    36)      0
 ---------------------------------------------------------------------------------------------------
                         Z-Matrix orientation:                         
 ---------------------------------------------------------------------
 Center     Atomic      Atomic             Coordinates (Angstroms)
 Number     Number       Type             X           Y           Z
 ---------------------------------------------------------------------
      1          6           0        0.000000    0.000000    0.000000
      2          6           0        0.000000    0.000000    1.423500
      3          1           0        0.915197    0.000000   -0.598462
      4          6           0       -1.012615   -0.818000    1.937123
      5          1           0        0.733980    0.521015    2.038959
      6          6           0       -1.695182   -1.663885    1.079879
      7          1           0       -1.304201   -0.766899    2.991036
      8          1           0       -1.269754   -2.097641    0.179009
      9          1           0       -2.592728   -2.169416    1.451489
     10          6           0       -1.163962   -0.255948   -0.659523
     11          1           0       -1.123012   -0.449739   -1.737273
     12          8           0       -2.446043    0.019247   -0.275354
     13          8           0       -3.128381    0.494860   -1.437110
     14          1           0       -3.974646    0.040505   -1.324506
 ---------------------------------------------------------------------
                    Distance matrix (angstroms):
                    1          2          3          4          5
     1  C    0.000000
     2  C    1.423500   0.000000
     3  H    1.093500   2.219440   0.000000
     4  C    2.333871   1.399400   3.288582   0.000000
     5  H    2.228797   1.090400   2.694491   2.203162   0.000000
     6  C    2.609271   2.400048   3.521281   1.384300   3.405062
     7  H    3.351921   2.178588   4.289331   1.094700   2.592172
     8  H    2.458540   2.749751   3.127071   2.189650   3.785726
     9  H    3.679052   3.380737   4.605888   2.135163   4.318625
    10  C    1.362089   2.399854   2.095744   2.661085   3.389345
    11  H    2.116965   3.384362   2.377699   3.694453   4.318647
    12  O    2.461568   2.978188   3.376789   2.765999   3.964891
    13  O    3.478066   4.267874   4.159176   4.193509   5.196304
    14  H    4.189722   4.832286   4.943617   4.488750   5.806457
                    6          7          8          9         10
     6  C    0.000000
     7  H    2.147085   0.000000
     8  H    1.086600   3.111199   0.000000
     9  H    1.095100   2.448992   1.837013   0.000000
    10  C    2.300000   3.688810   2.026367   3.187335   0.000000
    11  H    3.120557   4.742397   2.531650   3.909675   1.095800
    12  O    2.287659   3.548399   2.464005   2.791729   1.366400
    13  O    3.612406   4.952590   3.575947   3.966018   2.242163
    14  H    3.725852   5.138782   3.761472   3.807834   2.903451
                   11         12         13         14
    11  H    0.000000
    12  O    2.026713   0.000000
    13  O    2.236933   1.428800   0.000000
    14  H    2.922761   1.854130   0.967100   0.000000
 Stoichiometry    C5H7O2(2)
 Framework group  C1[X(C5H7O2)]
 Deg. of freedom    36
 Full point group                 C1      NOp   1
 Largest Abelian subgroup         C1      NOp   1
 Largest concise Abelian subgroup C1      NOp   1
                         Standard orientation:                         
 ---------------------------------------------------------------------
 Center     Atomic      Atomic             Coordinates (Angstroms)
 Number     Number       Type             X           Y           Z
 ---------------------------------------------------------------------
      1          6           0        0.700688   -1.301286    0.229755
      2          6           0        1.737573   -0.618538   -0.466719
      3          1           0        0.859032   -2.239135    0.769301
      4          6           0        1.633006    0.768409   -0.312556
      5          1           0        2.548570   -1.113132   -1.002101
      6          6           0        0.750299    1.277484    0.624437
      7          1           0        2.200175    1.454976   -0.949199
      8          1           0        0.465172    0.765858    1.539664
      9          1           0        0.548696    2.353858    0.619937
     10          6           0       -0.479554   -0.658324    0.450922
     11          1           0       -1.195637   -1.104739    1.150005
     12          8           0       -1.092382    0.296169   -0.310940
     13          8           0       -2.485653   -0.020321   -0.320969
     14          1           0       -2.853807    0.869052   -0.227367
 ---------------------------------------------------------------------
 Rotational constants (GHZ):           5.2595879           2.0611483           1.6920526
 Leave Link  202 at Tue May 20 12:07:55 2025, MaxMem=  3758096384 cpu:               0.1 elap:               0.0
 (Enter /gpfs/fs1/soft/bebop/software/custom-built/gaussian/16-c.02/g16/l301.exe)
 Standard basis: def2SVP (5D, 7F)
 Ernie: Thresh=  0.10000D-02 Tol=  0.10000D-05 Strict=F.
 There are   140 symmetry adapted cartesian basis functions of A   symmetry.
 There are   133 symmetry adapted basis functions of A   symmetry.
   133 basis functions,   224 primitive gaussians,   140 cartesian basis functions
    27 alpha electrons       26 beta electrons
       nuclear repulsion energy       296.1180313728 Hartrees.
 IExCor= 4639 DFT=T Ex+Corr=wB97XD ExCW=0 ScaHFX=  1.000000
 ScaDFX=  1.000000  1.000000  1.000000  1.000000 ScalE2=  1.000000  1.000000
 IRadAn=      5 IRanWt=     -1 IRanGd=            0 ICorTp=0 IEmpDi=121
 HFx  wShort=  0.000000 wLong=  0.200000 cFull=  0.222036 cShort=  0.000000 cLong=  0.777964
 DFx  wShort=  0.000000 wLong=  0.200000 cFull=  0.000000 cShort=  0.000000 cLong=  1.000000
 NAtoms=   14 NActive=   14 NUniq=   14 SFac= 1.00D+00 NAtFMM=   60 NAOKFM=F Big=F
 Integral buffers will be    131072 words long.
 Raffenetti 2 integral format.
 Two-electron integral symmetry is turned on.
 R6Disp:  Grimme-D2 Dispersion energy=       -0.0056941677 Hartrees.
 Nuclear repulsion after empirical dispersion term =      296.1123372051 Hartrees.
 Leave Link  301 at Tue May 20 12:07:55 2025, MaxMem=  3758096384 cpu:               0.3 elap:               0.1
 (Enter /gpfs/fs1/soft/bebop/software/custom-built/gaussian/16-c.02/g16/l302.exe)
 NPDir=0 NMtPBC=     1 NCelOv=     1 NCel=       1 NClECP=     1 NCelD=      1
         NCelK=      1 NCelE2=     1 NClLst=     1 CellRange=     0.0.
 One-electron integrals computed using PRISM.
 One-electron integral symmetry used in STVInt
   1 Symmetry operations used in ECPInt.
 ECPInt:  NShTT=    2016 NPrTT=    7252 LenC2=    2008 LenP2D=    5966.
 LDataN:  DoStor=T MaxTD1= 4 Len=   56
 NBasis=   133 RedAO= T EigKep=  1.04D-03  NBF=   133
 NBsUse=   133 1.00D-06 EigRej= -1.00D+00 NBFU=   133
 Precomputing XC quadrature grid using
 IXCGrd= 4 IRadAn=           5 IRanWt=          -1 IRanGd=           0 AccXCQ= 0.00D+00.
 Generated NRdTot=       0 NPtTot=           0 NUsed=           0 NTot=          32
 NSgBfM=   140   140   140   140   140 MxSgAt=    14 MxSgA2=    14.
 Leave Link  302 at Tue May 20 12:07:55 2025, MaxMem=  3758096384 cpu:               0.8 elap:               0.2
 (Enter /gpfs/fs1/soft/bebop/software/custom-built/gaussian/16-c.02/g16/l303.exe)
 DipDrv:  MaxL=1.
 Leave Link  303 at Tue May 20 12:07:55 2025, MaxMem=  3758096384 cpu:               0.1 elap:               0.0
 (Enter /gpfs/fs1/soft/bebop/software/custom-built/gaussian/16-c.02/g16/l401.exe)
 ExpMin= 1.22D-01 ExpMax= 2.27D+03 ExpMxC= 3.41D+02 IAcc=3 IRadAn=         5 AccDes= 0.00D+00
 Harris functional with IExCor= 4639 and IRadAn=       5 diagonalized for initial guess.
 HarFok:  IExCor= 4639 AccDes= 0.00D+00 IRadAn=         5 IDoV= 1 UseB2=F ITyADJ=14
 ICtDFT=  3500011 ScaDFX=  1.000000  1.000000  1.000000  1.000000
 FoFCou: FMM=F IPFlag=           0 FMFlag=      100000 FMFlg1=           0
         NFxFlg=           0 DoJE=T BraDBF=F KetDBF=T FulRan=T
         wScrn=  0.000000 ICntrl=       500 IOpCl=  0 I1Cent=   200000004 NGrid=           0
         NMat0=    1 NMatS0=      1 NMatT0=    0 NMatD0=    1 NMtDS0=    0 NMtDT0=    0
 Petite list used in FoFCou.
 Harris En= -330.323020186214    
 JPrj=0 DoOrth=F DoCkMO=F.
 Initial guess <Sx>= 0.0000 <Sy>= 0.0000 <Sz>= 0.5000 <S**2>= 0.7500 S= 0.5000
 Leave Link  401 at Tue May 20 12:07:56 2025, MaxMem=  3758096384 cpu:               2.6 elap:               0.5
 (Enter /gpfs/fs1/soft/bebop/software/custom-built/gaussian/16-c.02/g16/l502.exe)
 Keep R1 and R2 ints in memory in canonical form, NReq=165843629.
 FoFCou: FMM=F IPFlag=           0 FMFlag=           0 FMFlg1=           0
         NFxFlg=           0 DoJE=F BraDBF=F KetDBF=F FulRan=T
         wScrn=  0.000000 ICntrl=       600 IOpCl=  0 I1Cent=           0 NGrid=           0
         NMat0=    1 NMatS0=   8911 NMatT0=    0 NMatD0=    1 NMtDS0=    0 NMtDT0=    0
 Symmetry not used in FoFCou.
 Two-electron integral symmetry not used.
 UHF open shell SCF:
 Using DIIS extrapolation, IDIIS=  1040.
 NGot=  3758096384 LenX=  3599224750 LenY=  3599204709
 Requested convergence on RMS density matrix=1.00D-08 within  32 cycles.
 Requested convergence on MAX density matrix=1.00D-06.
 Requested convergence on             energy=1.00D-06.
 No special actions if energy rises.
 Integral accuracy reduced to 1.0D-05 until final iterations.

 Cycle   1  Pass 0  IDiag  1:
 E= -344.357235981549    
 DIIS: error= 2.60D-02 at cycle   1 NSaved=   1.
 NSaved= 1 IEnMin= 1 EnMin= -344.357235981549     IErMin= 1 ErrMin= 2.60D-02
 ErrMax= 2.60D-02  0.00D+00 EMaxC= 1.00D-01 BMatC= 1.30D+00 BMatP= 1.30D+00
 IDIUse=3 WtCom= 7.40D-01 WtEn= 2.60D-01
 Coeff-Com:  0.100D+01
 Coeff-En:   0.100D+01
 Coeff:      0.100D+01
 Gap=     0.194 Goal=   None    Shift=    0.000
 Gap=     0.505 Goal=   None    Shift=    0.000
 GapD=    0.194 DampG=1.000 DampE=0.500 DampFc=0.5000 IDamp=-1.
 Damping current iteration by 5.00D-01
 RMSDP=8.04D-03 MaxDP=2.10D-01              OVMax= 4.06D-01

 Cycle   2  Pass 0  IDiag  1:
 E= -344.426606981474     Delta-E=       -0.069370999925 Rises=F Damp=T
 DIIS: error= 1.31D-02 at cycle   2 NSaved=   2.
 NSaved= 2 IEnMin= 2 EnMin= -344.426606981474     IErMin= 2 ErrMin= 1.31D-02
 ErrMax= 1.31D-02  0.00D+00 EMaxC= 1.00D-01 BMatC= 1.58D-01 BMatP= 1.30D+00
 IDIUse=3 WtCom= 8.69D-01 WtEn= 1.31D-01
 Coeff-Com:  0.678D-01 0.932D+00
 Coeff-En:   0.266D+00 0.734D+00
 Coeff:      0.939D-01 0.906D+00
 Gap=     0.257 Goal=   None    Shift=    0.000
 Gap=     0.433 Goal=   None    Shift=    0.000
 RMSDP=2.28D-03 MaxDP=5.18D-02 DE=-6.94D-02 OVMax= 3.28D-01

 Cycle   3  Pass 0  IDiag  1:
 E= -344.569432959417     Delta-E=       -0.142825977943 Rises=F Damp=F
 DIIS: error= 3.96D-03 at cycle   3 NSaved=   3.
 NSaved= 3 IEnMin= 3 EnMin= -344.569432959417     IErMin= 3 ErrMin= 3.96D-03
 ErrMax= 3.96D-03  0.00D+00 EMaxC= 1.00D-01 BMatC= 2.14D-02 BMatP= 1.58D-01
 IDIUse=3 WtCom= 9.60D-01 WtEn= 3.96D-02
 Coeff-Com: -0.955D-01 0.183D+00 0.913D+00
 Coeff-En:   0.000D+00 0.000D+00 0.100D+01
 Coeff:     -0.918D-01 0.175D+00 0.916D+00
 Gap=     0.268 Goal=   None    Shift=    0.000
 Gap=     0.309 Goal=   None    Shift=    0.000
 RMSDP=8.43D-04 MaxDP=1.57D-02 DE=-1.43D-01 OVMax= 5.34D-02

 Cycle   4  Pass 0  IDiag  1:
 E= -344.577113320420     Delta-E=       -0.007680361003 Rises=F Damp=F
 DIIS: error= 1.43D-03 at cycle   4 NSaved=   4.
 NSaved= 4 IEnMin= 4 EnMin= -344.577113320420     IErMin= 4 ErrMin= 1.43D-03
 ErrMax= 1.43D-03  0.00D+00 EMaxC= 1.00D-01 BMatC= 2.88D-03 BMatP= 2.14D-02
 IDIUse=3 WtCom= 9.86D-01 WtEn= 1.43D-02
 Coeff-Com: -0.405D-01 0.574D-01 0.399D+00 0.584D+00
 Coeff-En:   0.000D+00 0.000D+00 0.000D+00 0.100D+01
 Coeff:     -0.399D-01 0.566D-01 0.394D+00 0.590D+00
 Gap=     0.274 Goal=   None    Shift=    0.000
 Gap=     0.312 Goal=   None    Shift=    0.000
 RMSDP=3.06D-04 MaxDP=5.52D-03 DE=-7.68D-03 OVMax= 1.78D-02

 Cycle   5  Pass 0  IDiag  1:
 E= -344.578450254051     Delta-E=       -0.001336933631 Rises=F Damp=F
 DIIS: error= 8.59D-04 at cycle   5 NSaved=   5.
 NSaved= 5 IEnMin= 5 EnMin= -344.578450254051     IErMin= 5 ErrMin= 8.59D-04
 ErrMax= 8.59D-04  0.00D+00 EMaxC= 1.00D-01 BMatC= 6.51D-04 BMatP= 2.88D-03
 IDIUse=3 WtCom= 9.91D-01 WtEn= 8.59D-03
 Coeff-Com:  0.208D-01-0.468D-01-0.204D+00 0.128D+00 0.110D+01
 Coeff-En:   0.000D+00 0.000D+00 0.000D+00 0.000D+00 0.100D+01
 Coeff:      0.206D-01-0.464D-01-0.203D+00 0.127D+00 0.110D+01
 Gap=     0.281 Goal=   None    Shift=    0.000
 Gap=     0.317 Goal=   None    Shift=    0.000
 RMSDP=4.08D-04 MaxDP=6.62D-03 DE=-1.34D-03 OVMax= 3.01D-02

 Cycle   6  Pass 0  IDiag  1:
 E= -344.579500784725     Delta-E=       -0.001050530675 Rises=F Damp=F
 DIIS: error= 5.17D-04 at cycle   6 NSaved=   6.
 NSaved= 6 IEnMin= 6 EnMin= -344.579500784725     IErMin= 6 ErrMin= 5.17D-04
 ErrMax= 5.17D-04  0.00D+00 EMaxC= 1.00D-01 BMatC= 2.23D-04 BMatP= 6.51D-04
 IDIUse=3 WtCom= 9.95D-01 WtEn= 5.17D-03
 Coeff-Com:  0.170D-01-0.290D-01-0.132D+00-0.147D+00 0.264D+00 0.103D+01
 Coeff-En:   0.000D+00 0.000D+00 0.000D+00 0.000D+00 0.000D+00 0.100D+01
 Coeff:      0.169D-01-0.289D-01-0.131D+00-0.146D+00 0.263D+00 0.103D+01
 Gap=     0.284 Goal=   None    Shift=    0.000
 Gap=     0.319 Goal=   None    Shift=    0.000
 RMSDP=2.47D-04 MaxDP=3.39D-03 DE=-1.05D-03 OVMax= 1.73D-02

 Cycle   7  Pass 0  IDiag  1:
 E= -344.579823681236     Delta-E=       -0.000322896510 Rises=F Damp=F
 DIIS: error= 3.23D-04 at cycle   7 NSaved=   7.
 NSaved= 7 IEnMin= 7 EnMin= -344.579823681236     IErMin= 7 ErrMin= 3.23D-04
 ErrMax= 3.23D-04  0.00D+00 EMaxC= 1.00D-01 BMatC= 8.40D-05 BMatP= 2.23D-04
 IDIUse=3 WtCom= 9.97D-01 WtEn= 3.23D-03
 Coeff-Com: -0.237D-02 0.766D-02 0.442D-01-0.760D-01-0.239D+00 0.388D+00
 Coeff-Com:  0.877D+00
 Coeff-En:   0.000D+00 0.000D+00 0.000D+00 0.000D+00 0.000D+00 0.000D+00
 Coeff-En:   0.100D+01
 Coeff:     -0.237D-02 0.764D-02 0.441D-01-0.758D-01-0.238D+00 0.387D+00
 Coeff:      0.877D+00
 Gap=     0.284 Goal=   None    Shift=    0.000
 Gap=     0.320 Goal=   None    Shift=    0.000
 RMSDP=1.12D-04 MaxDP=1.91D-03 DE=-3.23D-04 OVMax= 8.85D-03

 Cycle   8  Pass 0  IDiag  1:
 E= -344.579913997202     Delta-E=       -0.000090315967 Rises=F Damp=F
 DIIS: error= 1.88D-04 at cycle   8 NSaved=   8.
 NSaved= 8 IEnMin= 8 EnMin= -344.579913997202     IErMin= 8 ErrMin= 1.88D-04
 ErrMax= 1.88D-04  0.00D+00 EMaxC= 1.00D-01 BMatC= 2.36D-05 BMatP= 8.40D-05
 IDIUse=3 WtCom= 9.98D-01 WtEn= 1.88D-03
 Coeff-Com: -0.769D-02 0.143D-01 0.638D-01 0.220D-01-0.184D+00-0.264D+00
 Coeff-Com:  0.286D+00 0.107D+01
 Coeff-En:   0.000D+00 0.000D+00 0.000D+00 0.000D+00 0.000D+00 0.000D+00
 Coeff-En:   0.000D+00 0.100D+01
 Coeff:     -0.768D-02 0.143D-01 0.637D-01 0.219D-01-0.184D+00-0.264D+00
 Coeff:      0.286D+00 0.107D+01
 Gap=     0.285 Goal=   None    Shift=    0.000
 Gap=     0.320 Goal=   None    Shift=    0.000
 RMSDP=9.88D-05 MaxDP=1.88D-03 DE=-9.03D-05 OVMax= 7.53D-03

 Cycle   9  Pass 0  IDiag  1:
 E= -344.579960824760     Delta-E=       -0.000046827558 Rises=F Damp=F
 DIIS: error= 8.92D-05 at cycle   9 NSaved=   9.
 NSaved= 9 IEnMin= 9 EnMin= -344.579960824760     IErMin= 9 ErrMin= 8.92D-05
 ErrMax= 8.92D-05  0.00D+00 EMaxC= 1.00D-01 BMatC= 6.91D-06 BMatP= 2.36D-05
 IDIUse=1 WtCom= 1.00D+00 WtEn= 0.00D+00
 Coeff-Com: -0.111D-02 0.177D-02-0.281D-02 0.107D-01 0.203D-01-0.132D+00
 Coeff-Com: -0.102D+00 0.194D+00 0.101D+01
 Coeff:     -0.111D-02 0.177D-02-0.281D-02 0.107D-01 0.203D-01-0.132D+00
 Coeff:     -0.102D+00 0.194D+00 0.101D+01
 Gap=     0.285 Goal=   None    Shift=    0.000
 Gap=     0.321 Goal=   None    Shift=    0.000
 RMSDP=4.77D-05 MaxDP=9.95D-04 DE=-4.68D-05 OVMax= 3.99D-03

 Failed to achieve initial convergence to 1.0D-08 in 10 cycles.
 Switch to full accuracy anyway.
 Cycle  10  Pass 1  IDiag  1:
 E= -344.579947507512     Delta-E=        0.000013317248 Rises=F Damp=F
 DIIS: error= 4.59D-05 at cycle   1 NSaved=   1.
 NSaved= 1 IEnMin= 1 EnMin= -344.579947507512     IErMin= 1 ErrMin= 4.59D-05
 ErrMax= 4.59D-05  0.00D+00 EMaxC= 1.00D-01 BMatC= 2.62D-06 BMatP= 2.62D-06
 IDIUse=1 WtCom= 1.00D+00 WtEn= 0.00D+00
 Coeff-Com:  0.100D+01
 Coeff:      0.100D+01
 Gap=     0.285 Goal=   None    Shift=    0.000
 Gap=     0.321 Goal=   None    Shift=    0.000
 RMSDP=4.77D-05 MaxDP=9.95D-04 DE= 1.33D-05 OVMax= 1.53D-03

 Cycle  11  Pass 1  IDiag  1:
 E= -344.579951177121     Delta-E=       -0.000003669608 Rises=F Damp=F
 DIIS: error= 4.82D-05 at cycle   2 NSaved=   2.
 NSaved= 2 IEnMin= 2 EnMin= -344.579951177121     IErMin= 1 ErrMin= 4.59D-05
 ErrMax= 4.82D-05  0.00D+00 EMaxC= 1.00D-01 BMatC= 1.40D-06 BMatP= 2.62D-06
 IDIUse=1 WtCom= 1.00D+00 WtEn= 0.00D+00
 Coeff-Com:  0.143D+00 0.857D+00
 Coeff:      0.143D+00 0.857D+00
 Gap=     0.285 Goal=   None    Shift=    0.000
 Gap=     0.321 Goal=   None    Shift=    0.000
 RMSDP=1.17D-05 MaxDP=2.73D-04 DE=-3.67D-06 OVMax= 1.07D-03

 Cycle  12  Pass 1  IDiag  1:
 E= -344.579953069938     Delta-E=       -0.000001892817 Rises=F Damp=F
 DIIS: error= 3.12D-05 at cycle   3 NSaved=   3.
 NSaved= 3 IEnMin= 3 EnMin= -344.579953069938     IErMin= 3 ErrMin= 3.12D-05
 ErrMax= 3.12D-05  0.00D+00 EMaxC= 1.00D-01 BMatC= 8.88D-07 BMatP= 1.40D-06
 IDIUse=1 WtCom= 1.00D+00 WtEn= 0.00D+00
 Coeff-Com: -0.593D+00 0.229D+00 0.136D+01
 Coeff:     -0.593D+00 0.229D+00 0.136D+01
 Gap=     0.285 Goal=   None    Shift=    0.000
 Gap=     0.321 Goal=   None    Shift=    0.000
 RMSDP=2.19D-05 MaxDP=4.91D-04 DE=-1.89D-06 OVMax= 1.80D-03

 Cycle  13  Pass 1  IDiag  1:
 E= -344.579955616262     Delta-E=       -0.000002546325 Rises=F Damp=F
 DIIS: error= 2.29D-05 at cycle   4 NSaved=   4.
 NSaved= 4 IEnMin= 4 EnMin= -344.579955616262     IErMin= 4 ErrMin= 2.29D-05
 ErrMax= 2.29D-05  0.00D+00 EMaxC= 1.00D-01 BMatC= 3.44D-07 BMatP= 8.88D-07
 IDIUse=1 WtCom= 1.00D+00 WtEn= 0.00D+00
 Coeff-Com: -0.266D+00-0.320D+00 0.467D+00 0.112D+01
 Coeff:     -0.266D+00-0.320D+00 0.467D+00 0.112D+01
 Gap=     0.285 Goal=   None    Shift=    0.000
 Gap=     0.321 Goal=   None    Shift=    0.000
 RMSDP=1.69D-05 MaxDP=3.59D-04 DE=-2.55D-06 OVMax= 1.46D-03

 Cycle  14  Pass 1  IDiag  1:
 E= -344.579956661629     Delta-E=       -0.000001045367 Rises=F Damp=F
 DIIS: error= 1.29D-05 at cycle   5 NSaved=   5.
 NSaved= 5 IEnMin= 5 EnMin= -344.579956661629     IErMin= 5 ErrMin= 1.29D-05
 ErrMax= 1.29D-05  0.00D+00 EMaxC= 1.00D-01 BMatC= 1.15D-07 BMatP= 3.44D-07
 IDIUse=1 WtCom= 1.00D+00 WtEn= 0.00D+00
 Coeff-Com:  0.109D+00-0.274D+00-0.320D+00 0.556D+00 0.928D+00
 Coeff:      0.109D+00-0.274D+00-0.320D+00 0.556D+00 0.928D+00
 Gap=     0.285 Goal=   None    Shift=    0.000
 Gap=     0.321 Goal=   None    Shift=    0.000
 RMSDP=1.05D-05 MaxDP=2.31D-04 DE=-1.05D-06 OVMax= 8.61D-04

 Cycle  15  Pass 1  IDiag  1:
 E= -344.579956928389     Delta-E=       -0.000000266760 Rises=F Damp=F
 DIIS: error= 6.91D-06 at cycle   6 NSaved=   6.
 NSaved= 6 IEnMin= 6 EnMin= -344.579956928389     IErMin= 6 ErrMin= 6.91D-06
 ErrMax= 6.91D-06  0.00D+00 EMaxC= 1.00D-01 BMatC= 2.64D-08 BMatP= 1.15D-07
 IDIUse=1 WtCom= 1.00D+00 WtEn= 0.00D+00
 Coeff-Com:  0.756D-01-0.455D-01-0.180D+00 0.293D-02 0.399D+00 0.748D+00
 Coeff:      0.756D-01-0.455D-01-0.180D+00 0.293D-02 0.399D+00 0.748D+00
 Gap=     0.285 Goal=   None    Shift=    0.000
 Gap=     0.321 Goal=   None    Shift=    0.000
 RMSDP=2.56D-06 MaxDP=5.32D-05 DE=-2.67D-07 OVMax= 2.47D-04

 Cycle  16  Pass 1  IDiag  1:
 E= -344.579956958603     Delta-E=       -0.000000030213 Rises=F Damp=F
 DIIS: error= 4.69D-06 at cycle   7 NSaved=   7.
 NSaved= 7 IEnMin= 7 EnMin= -344.579956958603     IErMin= 7 ErrMin= 4.69D-06
 ErrMax= 4.69D-06  0.00D+00 EMaxC= 1.00D-01 BMatC= 7.37D-09 BMatP= 2.64D-08
 IDIUse=1 WtCom= 1.00D+00 WtEn= 0.00D+00
 Coeff-Com: -0.240D-01 0.115D+00 0.854D-01-0.284D+00-0.235D+00 0.202D+00
 Coeff-Com:  0.114D+01
 Coeff:     -0.240D-01 0.115D+00 0.854D-01-0.284D+00-0.235D+00 0.202D+00
 Coeff:      0.114D+01
 Gap=     0.285 Goal=   None    Shift=    0.000
 Gap=     0.321 Goal=   None    Shift=    0.000
 RMSDP=2.35D-06 MaxDP=3.60D-05 DE=-3.02D-08 OVMax= 2.36D-04

 Cycle  17  Pass 1  IDiag  1:
 E= -344.579956974208     Delta-E=       -0.000000015606 Rises=F Damp=F
 DIIS: error= 2.34D-06 at cycle   8 NSaved=   8.
 NSaved= 8 IEnMin= 8 EnMin= -344.579956974208     IErMin= 8 ErrMin= 2.34D-06
 ErrMax= 2.34D-06  0.00D+00 EMaxC= 1.00D-01 BMatC= 1.35D-09 BMatP= 7.37D-09
 IDIUse=1 WtCom= 1.00D+00 WtEn= 0.00D+00
 Coeff-Com: -0.264D-01 0.482D-01 0.651D-01-0.882D-01-0.151D+00-0.127D+00
 Coeff-Com:  0.310D+00 0.969D+00
 Coeff:     -0.264D-01 0.482D-01 0.651D-01-0.882D-01-0.151D+00-0.127D+00
 Coeff:      0.310D+00 0.969D+00
 Gap=     0.285 Goal=   None    Shift=    0.000
 Gap=     0.321 Goal=   None    Shift=    0.000
 RMSDP=1.01D-06 MaxDP=1.80D-05 DE=-1.56D-08 OVMax= 1.08D-04

 Cycle  18  Pass 1  IDiag  1:
 E= -344.579956977191     Delta-E=       -0.000000002983 Rises=F Damp=F
 DIIS: error= 9.44D-07 at cycle   9 NSaved=   9.
 NSaved= 9 IEnMin= 9 EnMin= -344.579956977191     IErMin= 9 ErrMin= 9.44D-07
 ErrMax= 9.44D-07  0.00D+00 EMaxC= 1.00D-01 BMatC= 3.30D-10 BMatP= 1.35D-09
 IDIUse=1 WtCom= 1.00D+00 WtEn= 0.00D+00
 Coeff-Com:  0.551D-03-0.109D-01-0.859D-02 0.368D-01 0.192D-01-0.596D-01
 Coeff-Com: -0.173D+00 0.165D+00 0.103D+01
 Coeff:      0.551D-03-0.109D-01-0.859D-02 0.368D-01 0.192D-01-0.596D-01
 Coeff:     -0.173D+00 0.165D+00 0.103D+01
 Gap=     0.285 Goal=   None    Shift=    0.000
 Gap=     0.321 Goal=   None    Shift=    0.000
 RMSDP=4.20D-07 MaxDP=7.90D-06 DE=-2.98D-09 OVMax= 4.30D-05

 Cycle  19  Pass 1  IDiag  1:
 E= -344.579956977829     Delta-E=       -0.000000000638 Rises=F Damp=F
 DIIS: error= 4.31D-07 at cycle  10 NSaved=  10.
 NSaved=10 IEnMin=10 EnMin= -344.579956977829     IErMin=10 ErrMin= 4.31D-07
 ErrMax= 4.31D-07  0.00D+00 EMaxC= 1.00D-01 BMatC= 9.78D-11 BMatP= 3.30D-10
 IDIUse=1 WtCom= 1.00D+00 WtEn= 0.00D+00
 Coeff-Com:  0.909D-02-0.195D-01-0.257D-01 0.415D-01 0.585D-01 0.332D-01
 Coeff-Com: -0.151D+00-0.288D+00 0.251D+00 0.109D+01
 Coeff:      0.909D-02-0.195D-01-0.257D-01 0.415D-01 0.585D-01 0.332D-01
 Coeff:     -0.151D+00-0.288D+00 0.251D+00 0.109D+01
 Gap=     0.285 Goal=   None    Shift=    0.000
 Gap=     0.321 Goal=   None    Shift=    0.000
 RMSDP=2.16D-07 MaxDP=4.54D-06 DE=-6.38D-10 OVMax= 2.14D-05

 Cycle  20  Pass 1  IDiag  1:
 E= -344.579956978027     Delta-E=       -0.000000000198 Rises=F Damp=F
 DIIS: error= 2.35D-07 at cycle  11 NSaved=  11.
 NSaved=11 IEnMin=11 EnMin= -344.579956978027     IErMin=11 ErrMin= 2.35D-07
 ErrMax= 2.35D-07  0.00D+00 EMaxC= 1.00D-01 BMatC= 1.93D-11 BMatP= 9.78D-11
 IDIUse=1 WtCom= 1.00D+00 WtEn= 0.00D+00
 Coeff-Com:  0.555D-03 0.124D-02 0.751D-03-0.609D-02-0.269D-02 0.151D-01
 Coeff-Com:  0.352D-01-0.546D-01-0.216D+00 0.724D-01 0.115D+01
 Coeff:      0.555D-03 0.124D-02 0.751D-03-0.609D-02-0.269D-02 0.151D-01
 Coeff:      0.352D-01-0.546D-01-0.216D+00 0.724D-01 0.115D+01
 Gap=     0.285 Goal=   None    Shift=    0.000
 Gap=     0.321 Goal=   None    Shift=    0.000
 RMSDP=9.19D-08 MaxDP=2.65D-06 DE=-1.98D-10 OVMax= 8.02D-06

 Cycle  21  Pass 1  IDiag  1:
 E= -344.579956978070     Delta-E=       -0.000000000043 Rises=F Damp=F
 DIIS: error= 1.39D-07 at cycle  12 NSaved=  12.
 NSaved=12 IEnMin=12 EnMin= -344.579956978070     IErMin=12 ErrMin= 1.39D-07
 ErrMax= 1.39D-07  0.00D+00 EMaxC= 1.00D-01 BMatC= 4.94D-12 BMatP= 1.93D-11
 IDIUse=1 WtCom= 1.00D+00 WtEn= 0.00D+00
 Coeff-Com: -0.186D-02 0.425D-02 0.626D-02-0.102D-01-0.145D-01-0.388D-02
 Coeff-Com:  0.430D-01 0.419D-01-0.104D+00-0.229D+00 0.272D+00 0.996D+00
 Coeff:     -0.186D-02 0.425D-02 0.626D-02-0.102D-01-0.145D-01-0.388D-02
 Coeff:      0.430D-01 0.419D-01-0.104D+00-0.229D+00 0.272D+00 0.996D+00
 Gap=     0.285 Goal=   None    Shift=    0.000
 Gap=     0.321 Goal=   None    Shift=    0.000
 RMSDP=4.29D-08 MaxDP=1.01D-06 DE=-4.34D-11 OVMax= 4.05D-06

 Cycle  22  Pass 1  IDiag  1:
 E= -344.579956978079     Delta-E=       -0.000000000009 Rises=F Damp=F
 DIIS: error= 4.44D-08 at cycle  13 NSaved=  13.
 NSaved=13 IEnMin=13 EnMin= -344.579956978079     IErMin=13 ErrMin= 4.44D-08
 ErrMax= 4.44D-08  0.00D+00 EMaxC= 1.00D-01 BMatC= 1.28D-12 BMatP= 4.94D-12
 IDIUse=1 WtCom= 1.00D+00 WtEn= 0.00D+00
 Coeff-Com: -0.408D-03 0.219D-03 0.110D-02-0.253D-03-0.224D-02-0.373D-02
 Coeff-Com:  0.206D-03 0.170D-01 0.479D-01-0.640D-01-0.266D+00 0.207D+00
 Coeff-Com:  0.106D+01
 Coeff:     -0.408D-03 0.219D-03 0.110D-02-0.253D-03-0.224D-02-0.373D-02
 Coeff:      0.206D-03 0.170D-01 0.479D-01-0.640D-01-0.266D+00 0.207D+00
 Coeff:      0.106D+01
 Gap=     0.285 Goal=   None    Shift=    0.000
 Gap=     0.321 Goal=   None    Shift=    0.000
 RMSDP=2.05D-08 MaxDP=4.48D-07 DE=-8.53D-12 OVMax= 2.03D-06

 Cycle  23  Pass 1  IDiag  1:
 E= -344.579956978082     Delta-E=       -0.000000000003 Rises=F Damp=F
 DIIS: error= 1.33D-08 at cycle  14 NSaved=  14.
 NSaved=14 IEnMin=14 EnMin= -344.579956978082     IErMin=14 ErrMin= 1.33D-08
 ErrMax= 1.33D-08  0.00D+00 EMaxC= 1.00D-01 BMatC= 1.52D-13 BMatP= 1.28D-12
 IDIUse=1 WtCom= 1.00D+00 WtEn= 0.00D+00
 Coeff-Com:  0.351D-03-0.935D-03-0.105D-02 0.207D-02 0.262D-02 0.599D-03
 Coeff-Com: -0.855D-02-0.954D-02 0.294D-01 0.411D-01-0.812D-01-0.176D+00
 Coeff-Com:  0.767D-01 0.112D+01
 Coeff:      0.351D-03-0.935D-03-0.105D-02 0.207D-02 0.262D-02 0.599D-03
 Coeff:     -0.855D-02-0.954D-02 0.294D-01 0.411D-01-0.812D-01-0.176D+00
 Coeff:      0.767D-01 0.112D+01
 Gap=     0.285 Goal=   None    Shift=    0.000
 Gap=     0.321 Goal=   None    Shift=    0.000
 RMSDP=8.00D-09 MaxDP=1.33D-07 DE=-2.61D-12 OVMax= 7.70D-07

 SCF Done:  E(UwB97XD) =  -344.579956978     A.U. after   23 cycles
            NFock= 23  Conv=0.80D-08     -V/T= 2.0083
 <Sx>= 0.0000 <Sy>= 0.0000 <Sz>= 0.5000 <S**2>= 0.8006 S= 0.5250
 <L.S>=  0.00000000000    
 KE= 3.417550628588D+02 PE=-1.396923130919D+03 EE= 4.144757738772D+02
 Annihilation of the first spin contaminant:
 S**2 before annihilation     0.8006,   after     0.7513
 Leave Link  502 at Tue May 20 12:08:10 2025, MaxMem=  3758096384 cpu:              70.6 elap:              13.9
 (Enter /gpfs/fs1/soft/bebop/software/custom-built/gaussian/16-c.02/g16/l508.exe)
 QCSCF skips out because SCF is already converged.
 Leave Link  508 at Tue May 20 12:08:10 2025, MaxMem=  3758096384 cpu:               0.0 elap:               0.0
 (Enter /gpfs/fs1/soft/bebop/software/custom-built/gaussian/16-c.02/g16/l801.exe)
 DoSCS=F DFT=T ScalE2(SS,OS)=  1.000000  1.000000
 Range of M.O.s used for correlation:     1   133
 NBasis=   133 NAE=    27 NBE=    26 NFC=     0 NFV=     0
 NROrb=    133 NOA=    27 NOB=    26 NVA=   106 NVB=   107
 Leave Link  801 at Tue May 20 12:08:10 2025, MaxMem=  3758096384 cpu:               0.1 elap:               0.0
 (Enter /gpfs/fs1/soft/bebop/software/custom-built/gaussian/16-c.02/g16/l1101.exe)
 Using compressed storage, NAtomX=    14.
 Will process     15 centers per pass.
   1 Symmetry operations used in ECPInt.
 ECPInt:  NShTT=    2016 NPrTT=    7252 LenC2=    2008 LenP2D=    5966.
 LDataN:  DoStor=T MaxTD1= 5 Len=  102
 R6Disp: Adding Grimme-D2 dispersion energy 1st derivatives to the gradient.
 Leave Link 1101 at Tue May 20 12:08:10 2025, MaxMem=  3758096384 cpu:               0.6 elap:               0.1
 (Enter /gpfs/fs1/soft/bebop/software/custom-built/gaussian/16-c.02/g16/l1102.exe)
 Symmetrizing basis deriv contribution to polar:
 IMax=3 JMax=2 DiffMx= 0.00D+00
 Leave Link 1102 at Tue May 20 12:08:10 2025, MaxMem=  3758096384 cpu:               0.1 elap:               0.0
 (Enter /gpfs/fs1/soft/bebop/software/custom-built/gaussian/16-c.02/g16/l1110.exe)
 Forming Gx(P) for the SCF density, NAtomX=    14.
 Integral derivatives from FoFJK, PRISM(SPDF).
 Do as many integral derivatives as possible in FoFJK.
 G2DrvN: MDV=    3758094834.
 G2DrvN: will do    15 centers at a time, making    1 passes.
 Calling FoFCou, ICntrl=  3107 FMM=F I1Cent=   0 AccDes= 0.00D+00.
 FoFJK:  IHMeth= 1 ICntrl=    3107 DoSepK=T KAlg= 0 I1Cent=           0 FoldK=F
 IRaf=         1 NMat=       1 IRICut=       1 DoRegI=T DoRafI=F ISym2E= 0 IDoP0=0 IntGTp=1.
 FoFCou: FMM=F IPFlag=           0 FMFlag=      100000 FMFlg1=           0
         NFxFlg=           0 DoJE=F BraDBF=F KetDBF=F FulRan=T
         wScrn=  0.000000 ICntrl=      3507 IOpCl=  0 I1Cent=           0 NGrid=           0
         NMat0=    1 NMatS0=      1 NMatT0=    0 NMatD0=    1 NMtDS0=    0 NMtDT0=    0
 Symmetry not used in FoFCou.
 End of G2Drv F.D. properties file   721 does not exist.
 End of G2Drv F.D. properties file   722 does not exist.
 End of G2Drv F.D. properties file   788 does not exist.
 Leave Link 1110 at Tue May 20 12:08:26 2025, MaxMem=  3758096384 cpu:              98.2 elap:              16.4
 (Enter /gpfs/fs1/soft/bebop/software/custom-built/gaussian/16-c.02/g16/l1002.exe)
 Minotr:  UHF open shell wavefunction.
          IDoAtm=11111111111111
          Direct CPHF calculation.
          Differentiating once with respect to nuclear coordinates.
          Requested convergence is 1.0D-08 RMS, and 1.0D-07 maximum.
          Secondary convergence is 1.0D-12 RMS, and 1.0D-12 maximum.
          NewPWx=T KeepS1=F KeepF1=F KeepIn=T MapXYZ=F SortEE=F KeepMc=T.
         4145 words used for storage of precomputed grid.
 Keep R1 and R2 ints in memory in canonical form, NReq=165837164.
 FoFCou: FMM=F IPFlag=           0 FMFlag=           0 FMFlg1=           0
         NFxFlg=           0 DoJE=F BraDBF=F KetDBF=F FulRan=T
         wScrn=  0.000000 ICntrl=       600 IOpCl=  0 I1Cent=           0 NGrid=           0
         NMat0=    1 NMatS0=   8911 NMatT0=    0 NMatD0=    1 NMtDS0=    0 NMtDT0=    0
 Symmetry not used in FoFCou.
 Two-electron integral symmetry not used.
          MDV=    3758096384 using IRadAn=       1.
          Solving linear equations simultaneously, MaxMat=       0.
          There are    45 degrees of freedom in the 1st order CPHF.  IDoFFX=6 NUNeed=     0.
     39 vectors produced by pass  0 Test12= 1.25D-14 2.22D-09 XBig12= 1.66D-01 1.46D-01.
 AX will form    39 AO Fock derivatives at one time.
     39 vectors produced by pass  1 Test12= 1.25D-14 2.22D-09 XBig12= 2.93D-02 4.62D-02.
     39 vectors produced by pass  2 Test12= 1.25D-14 2.22D-09 XBig12= 1.78D-03 9.56D-03.
     39 vectors produced by pass  3 Test12= 1.25D-14 2.22D-09 XBig12= 2.71D-05 8.63D-04.
     39 vectors produced by pass  4 Test12= 1.25D-14 2.22D-09 XBig12= 4.14D-07 8.73D-05.
     39 vectors produced by pass  5 Test12= 1.25D-14 2.22D-09 XBig12= 5.74D-09 8.68D-06.
     39 vectors produced by pass  6 Test12= 1.25D-14 2.22D-09 XBig12= 5.61D-11 9.97D-07.
     30 vectors produced by pass  7 Test12= 1.25D-14 2.22D-09 XBig12= 4.52D-13 5.89D-08.
      4 vectors produced by pass  8 Test12= 1.25D-14 2.22D-09 XBig12= 3.09D-15 5.36D-09.
 InvSVY:  IOpt=1 It=  1 EMax= 1.78D-15
 Solved reduced A of dimension   307 with    39 vectors.
 End of Minotr F.D. properties file   721 does not exist.
 End of Minotr F.D. properties file   722 does not exist.
 End of Minotr F.D. properties file   788 does not exist.
 Leave Link 1002 at Tue May 20 12:08:44 2025, MaxMem=  3758096384 cpu:             105.5 elap:              17.7
 (Enter /gpfs/fs1/soft/bebop/software/custom-built/gaussian/16-c.02/g16/l601.exe)
 Copying SCF densities to generalized density rwf, IOpCl= 1 IROHF=0.

 **********************************************************************

            Population analysis using the SCF Density.

 **********************************************************************

 Orbital symmetries:
 Alpha Orbitals:
       Occupied  (A) (A) (A) (A) (A) (A) (A) (A) (A) (A) (A) (A)
                 (A) (A) (A) (A) (A) (A) (A) (A) (A) (A) (A) (A)
                 (A) (A) (A)
       Virtual   (A) (A) (A) (A) (A) (A) (A) (A) (A) (A) (A) (A)
                 (A) (A) (A) (A) (A) (A) (A) (A) (A) (A) (A) (A)
                 (A) (A) (A) (A) (A) (A) (A) (A) (A) (A) (A) (A)
                 (A) (A) (A) (A) (A) (A) (A) (A) (A) (A) (A) (A)
                 (A) (A) (A) (A) (A) (A) (A) (A) (A) (A) (A) (A)
                 (A) (A) (A) (A) (A) (A) (A) (A) (A) (A) (A) (A)
                 (A) (A) (A) (A) (A) (A) (A) (A) (A) (A) (A) (A)
                 (A) (A) (A) (A) (A) (A) (A) (A) (A) (A) (A) (A)
                 (A) (A) (A) (A) (A) (A) (A) (A) (A) (A)
 Beta  Orbitals:
       Occupied  (A) (A) (A) (A) (A) (A) (A) (A) (A) (A) (A) (A)
                 (A) (A) (A) (A) (A) (A) (A) (A) (A) (A) (A) (A)
                 (A) (A)
       Virtual   (A) (A) (A) (A) (A) (A) (A) (A) (A) (A) (A) (A)
                 (A) (A) (A) (A) (A) (A) (A) (A) (A) (A) (A) (A)
                 (A) (A) (A) (A) (A) (A) (A) (A) (A) (A) (A) (A)
                 (A) (A) (A) (A) (A) (A) (A) (A) (A) (A) (A) (A)
                 (A) (A) (A) (A) (A) (A) (A) (A) (A) (A) (A) (A)
                 (A) (A) (A) (A) (A) (A) (A) (A) (A) (A) (A) (A)
                 (A) (A) (A) (A) (A) (A) (A) (A) (A) (A) (A) (A)
                 (A) (A) (A) (A) (A) (A) (A) (A) (A) (A) (A) (A)
                 (A) (A) (A) (A) (A) (A) (A) (A) (A) (A) (A)
 The electronic state is 2-A.
 Alpha  occ. eigenvalues --  -19.33936 -19.32177 -10.35809 -10.29879 -10.29692
 Alpha  occ. eigenvalues --  -10.29496 -10.29294  -1.24701  -1.03263  -0.91847
 Alpha  occ. eigenvalues --   -0.82749  -0.76902  -0.67459  -0.65575  -0.62307
 Alpha  occ. eigenvalues --   -0.59079  -0.57503  -0.54383  -0.50500  -0.48524
 Alpha  occ. eigenvalues --   -0.46490  -0.45458  -0.44008  -0.39427  -0.38614
 Alpha  occ. eigenvalues --   -0.31996  -0.23717
 Alpha virt. eigenvalues --    0.04816   0.11325   0.14190   0.14771   0.16727
 Alpha virt. eigenvalues --    0.18254   0.19983   0.22291   0.22745   0.24844
 Alpha virt. eigenvalues --    0.29271   0.36337   0.38731   0.44287   0.46017
 Alpha virt. eigenvalues --    0.48374   0.51714   0.52817   0.55137   0.57293
 Alpha virt. eigenvalues --    0.58707   0.60846   0.62272   0.64521   0.67027
 Alpha virt. eigenvalues --    0.67362   0.71898   0.72024   0.73370   0.73829
 Alpha virt. eigenvalues --    0.75347   0.77020   0.78911   0.80265   0.84347
 Alpha virt. eigenvalues --    0.85128   0.86073   0.90184   0.91909   0.98518
 Alpha virt. eigenvalues --    1.01620   1.04155   1.08478   1.11870   1.17305
 Alpha virt. eigenvalues --    1.18075   1.22109   1.31349   1.34889   1.36103
 Alpha virt. eigenvalues --    1.41164   1.44416   1.47837   1.51217   1.58947
 Alpha virt. eigenvalues --    1.66893   1.69099   1.70789   1.71722   1.74411
 Alpha virt. eigenvalues --    1.76691   1.78597   1.82389   1.84208   1.86272
 Alpha virt. eigenvalues --    1.88002   1.90166   1.94335   1.95552   1.99970
 Alpha virt. eigenvalues --    2.04087   2.05163   2.11015   2.11735   2.16066
 Alpha virt. eigenvalues --    2.17320   2.25117   2.26871   2.27525   2.30785
 Alpha virt. eigenvalues --    2.40401   2.42803   2.47214   2.48641   2.51877
 Alpha virt. eigenvalues --    2.52238   2.55411   2.61012   2.64761   2.71702
 Alpha virt. eigenvalues --    2.78209   2.84598   2.86019   2.88529   2.92846
 Alpha virt. eigenvalues --    3.01725   3.03537   3.06218   3.15239   3.17974
 Alpha virt. eigenvalues --    3.23919   3.36931   3.44770   3.57702   3.65232
 Alpha virt. eigenvalues --    3.96591
  Beta  occ. eigenvalues --  -19.33862 -19.32146 -10.35440 -10.30186 -10.29680
  Beta  occ. eigenvalues --  -10.29063 -10.28502  -1.24533  -1.02941  -0.91122
  Beta  occ. eigenvalues --   -0.82051  -0.74963  -0.66915  -0.65227  -0.61644
  Beta  occ. eigenvalues --   -0.58783  -0.57037  -0.53804  -0.49931  -0.48100
  Beta  occ. eigenvalues --   -0.45777  -0.44881  -0.43610  -0.38420  -0.36542
  Beta  occ. eigenvalues --   -0.30827
  Beta virt. eigenvalues --    0.01273   0.05297   0.12202   0.14528   0.16696
  Beta virt. eigenvalues --    0.17246   0.18504   0.20902   0.22779   0.23020
  Beta virt. eigenvalues --    0.25116   0.29837   0.36613   0.38974   0.44710
  Beta virt. eigenvalues --    0.46310   0.48718   0.52356   0.53080   0.55788
  Beta virt. eigenvalues --    0.57728   0.59560   0.61579   0.62728   0.65579
  Beta virt. eigenvalues --    0.67114   0.68250   0.72267   0.72876   0.74107
  Beta virt. eigenvalues --    0.74542   0.75949   0.77522   0.79632   0.80583
  Beta virt. eigenvalues --    0.84716   0.85412   0.86566   0.90854   0.92177
  Beta virt. eigenvalues --    0.98725   1.01745   1.04559   1.08677   1.12075
  Beta virt. eigenvalues --    1.17716   1.18492   1.22540   1.31732   1.35869
  Beta virt. eigenvalues --    1.36349   1.41583   1.44903   1.48173   1.51494
  Beta virt. eigenvalues --    1.59421   1.67128   1.69677   1.71087   1.72008
  Beta virt. eigenvalues --    1.74562   1.77195   1.78855   1.83264   1.84801
  Beta virt. eigenvalues --    1.86608   1.88230   1.91043   1.95053   1.96820
  Beta virt. eigenvalues --    2.00824   2.04626   2.05799   2.11256   2.12756
  Beta virt. eigenvalues --    2.16664   2.18056   2.26201   2.27081   2.28520
  Beta virt. eigenvalues --    2.32022   2.41077   2.43862   2.48124   2.48937
  Beta virt. eigenvalues --    2.52323   2.52480   2.56319   2.62150   2.65408
  Beta virt. eigenvalues --    2.72100   2.78650   2.84922   2.86436   2.89169
  Beta virt. eigenvalues --    2.93655   3.01758   3.04053   3.06757   3.15652
  Beta virt. eigenvalues --    3.18183   3.24379   3.37212   3.45050   3.58076
  Beta virt. eigenvalues --    3.65299   3.96694
          Condensed to atoms (all electrons):
               1          2          3          4          5          6
     1  C    4.997188   0.361756   0.406439  -0.050822  -0.047590  -0.069848
     2  C    0.361756   4.988910  -0.046753   0.464778   0.425230  -0.056182
     3  H    0.406439  -0.046753   0.631996   0.006669  -0.003222  -0.000149
     4  C   -0.050822   0.464778   0.006669   4.812755  -0.049198   0.525218
     5  H   -0.047590   0.425230  -0.003222  -0.049198   0.634513   0.009528
     6  C   -0.069848  -0.056182  -0.000149   0.525218   0.009528   5.022508
     7  H    0.008993  -0.046394  -0.000308   0.419922  -0.007176  -0.047626
     8  H   -0.007719  -0.024509   0.000450  -0.001755  -0.000253   0.376340
     9  H    0.003217   0.009494  -0.000016  -0.021730  -0.000183   0.378054
    10  C    0.521987  -0.052222  -0.026930  -0.033884   0.008853  -0.042664
    11  H   -0.035672   0.007872  -0.011580   0.003025  -0.000248  -0.005027
    12  O   -0.046155  -0.002344   0.002750  -0.007059  -0.000000  -0.028855
    13  O    0.003933  -0.000551  -0.000059   0.000555   0.000010   0.003393
    14  H   -0.000412   0.000047   0.000000   0.000032  -0.000002  -0.000570
               7          8          9         10         11         12
     1  C    0.008993  -0.007719   0.003217   0.521987  -0.035672  -0.046155
     2  C   -0.046394  -0.024509   0.009494  -0.052222   0.007872  -0.002344
     3  H   -0.000308   0.000450  -0.000016  -0.026930  -0.011580   0.002750
     4  C    0.419922  -0.001755  -0.021730  -0.033884   0.003025  -0.007059
     5  H   -0.007176  -0.000253  -0.000183   0.008853  -0.000248  -0.000000
     6  C   -0.047626   0.376340   0.378054  -0.042664  -0.005027  -0.028855
     7  H    0.641782   0.005081  -0.010809   0.002248   0.000001  -0.000408
     8  H    0.005081   0.602477  -0.036063   0.015847   0.005307  -0.011850
     9  H   -0.010809  -0.036063   0.641708   0.000643  -0.000215  -0.000231
    10  C    0.002248   0.015847   0.000643   4.888625   0.392024   0.283712
    11  H    0.000001   0.005307  -0.000215   0.392024   0.624950  -0.036300
    12  O   -0.000408  -0.011850  -0.000231   0.283712  -0.036300   7.966566
    13  O    0.000007   0.000352  -0.000009  -0.052167   0.008953   0.101390
    14  H   -0.000001   0.000155  -0.000001   0.002353   0.001774  -0.017760
              13         14
     1  C    0.003933  -0.000412
     2  C   -0.000551   0.000047
     3  H   -0.000059   0.000000
     4  C    0.000555   0.000032
     5  H    0.000010  -0.000002
     6  C    0.003393  -0.000570
     7  H    0.000007  -0.000001
     8  H    0.000352   0.000155
     9  H   -0.000009  -0.000001
    10  C   -0.052167   0.002353
    11  H    0.008953   0.001774
    12  O    0.101390  -0.017760
    13  O    7.765523   0.312579
    14  H    0.312579   0.501513
          Atomic-Atomic Spin Densities.
               1          2          3          4          5          6
     1  C   -0.164332  -0.048610   0.003942   0.011767   0.000413  -0.014695
     2  C   -0.048610   0.670611  -0.007493  -0.008747   0.006121  -0.023220
     3  H    0.003942  -0.007493   0.021785   0.000756  -0.000119  -0.001830
     4  C    0.011767  -0.008747   0.000756  -0.285479   0.000395  -0.015755
     5  H    0.000413   0.006121  -0.000119   0.000395  -0.033274  -0.000294
     6  C   -0.014695  -0.023220  -0.001830  -0.015755  -0.000294   0.833213
     7  H   -0.000182  -0.003988  -0.000052   0.002855   0.000121  -0.002523
     8  H    0.004222  -0.000809   0.000304   0.001778  -0.000015  -0.006587
     9  H   -0.000062  -0.000414   0.000020  -0.000763   0.000012  -0.000699
    10  C    0.038754  -0.019369  -0.003318   0.003248  -0.000501  -0.080218
    11  H   -0.000956   0.000014   0.000432  -0.000113   0.000013  -0.000333
    12  O    0.000367   0.003838   0.000349   0.003675  -0.000011  -0.030406
    13  O    0.000010  -0.000109  -0.000003  -0.000128  -0.000000   0.001725
    14  H   -0.000011  -0.000023  -0.000004  -0.000001   0.000000   0.000651
               7          8          9         10         11         12
     1  C   -0.000182   0.004222  -0.000062   0.038754  -0.000956   0.000367
     2  C   -0.003988  -0.000809  -0.000414  -0.019369   0.000014   0.003838
     3  H   -0.000052   0.000304   0.000020  -0.003318   0.000432   0.000349
     4  C    0.002855   0.001778  -0.000763   0.003248  -0.000113   0.003675
     5  H    0.000121  -0.000015   0.000012  -0.000501   0.000013  -0.000011
     6  C   -0.002523  -0.006587  -0.000699  -0.080218  -0.000333  -0.030406
     7  H    0.023761  -0.000495  -0.000520  -0.000585  -0.000002  -0.000169
     8  H   -0.000495  -0.031877   0.003198   0.004009   0.000014   0.001849
     9  H   -0.000520   0.003198  -0.029984   0.002390   0.000020   0.000006
    10  C   -0.000585   0.004009   0.002390   0.349330   0.002302  -0.020948
    11  H   -0.000002   0.000014   0.000020   0.002302  -0.017032   0.000642
    12  O   -0.000169   0.001849   0.000006  -0.020948   0.000642   0.047859
    13  O    0.000003  -0.000108  -0.000003  -0.001422   0.000508  -0.003864
    14  H    0.000002  -0.000030  -0.000035   0.000337  -0.000088  -0.000600
              13         14
     1  C    0.000010  -0.000011
     2  C   -0.000109  -0.000023
     3  H   -0.000003  -0.000004
     4  C   -0.000128  -0.000001
     5  H   -0.000000   0.000000
     6  C    0.001725   0.000651
     7  H    0.000003   0.000002
     8  H   -0.000108  -0.000030
     9  H   -0.000003  -0.000035
    10  C   -0.001422   0.000337
    11  H    0.000508  -0.000088
    12  O   -0.003864  -0.000600
    13  O    0.015980   0.000001
    14  H    0.000001  -0.000233
 Mulliken charges and spin densities:
               1          2
     1  C   -0.045295  -0.169372
     2  C   -0.029132   0.567801
     3  H    0.040713   0.014770
     4  C   -0.068506  -0.286512
     5  H    0.029737  -0.027137
     6  C   -0.064119   0.659030
     7  H    0.034686   0.018226
     8  H    0.076140  -0.024547
     9  H    0.036140  -0.026835
    10  C    0.091574   0.274010
    11  H    0.045136  -0.014578
    12  O   -0.203457   0.002589
    13  O   -0.143909   0.012587
    14  H    0.200291  -0.000033
 Sum of Mulliken charges =  -0.00000   1.00000
 Mulliken charges and spin densities with hydrogens summed into heavy atoms:
               1          2
     1  C   -0.004582  -0.154602
     2  C    0.000605   0.540664
     4  C   -0.033820  -0.268286
     6  C    0.048162   0.607649
    10  C    0.136710   0.259432
    12  O   -0.203457   0.002589
    13  O    0.056382   0.012555
 APT charges:
               1
     1  C   -0.386933
     2  C   -0.552987
     3  H    0.478140
     4  C   -0.496180
     5  H    0.562325
     6  C   -0.618852
     7  H    0.505303
     8  H    0.188573
     9  H    0.419410
    10  C   -0.441906
    11  H    0.373743
    12  O   -0.024059
    13  O   -0.572789
    14  H    0.566213
 Sum of APT charges =  -0.00000
 APT charges with hydrogens summed into heavy atoms:
               1
     1  C    0.091207
     2  C    0.009338
     4  C    0.009123
     6  C   -0.010870
    10  C   -0.068162
    12  O   -0.024059
    13  O   -0.006576
 Electronic spatial extent (au):  <R**2>=            739.5092
 Charge=             -0.0000 electrons
 Dipole moment (field-independent basis, Debye):
    X=             -0.7120    Y=              0.9061    Z=              1.0229  Tot=              1.5409
 Quadrupole moment (field-independent basis, Debye-Ang):
   XX=            -37.5040   YY=            -38.5427   ZZ=            -41.9424
   XY=             -4.7746   XZ=             -3.1576   YZ=             -1.6477
 Traceless Quadrupole moment (field-independent basis, Debye-Ang):
   XX=              1.8257   YY=              0.7870   ZZ=             -2.6127
   XY=             -4.7746   XZ=             -3.1576   YZ=             -1.6477
 Octapole moment (field-independent basis, Debye-Ang**2):
  XXX=            -33.4611  YYY=              3.5352  ZZZ=             -0.8213  XYY=             -7.8096
  XXY=             12.5402  XXZ=             -5.7533  XZZ=             -6.0007  YZZ=              0.2133
  YYZ=              0.2032  XYZ=              0.5030
 Hexadecapole moment (field-independent basis, Debye-Ang**3):
 XXXX=           -518.0909 YYYY=           -247.1660 ZZZZ=           -106.2166 XXXY=            -50.1286
 XXXZ=            -11.7628 YYYX=            -11.6027 YYYZ=             -8.6802 ZZZX=              1.3257
 ZZZY=             -2.9320 XXYY=           -122.4773 XXZZ=           -113.5715 YYZZ=            -59.8636
 XXYZ=             -6.3200 YYXZ=             -1.7984 ZZXY=             -1.6064
 N-N= 2.961123372051D+02 E-N=-1.396923131039D+03  KE= 3.417550628588D+02
  Exact polarizability:       0.000       0.000       0.000       0.000       0.000       0.000
 Approx polarizability:      84.554      -6.852      75.307     -12.297       1.613      51.727
                          Isotropic Fermi Contact Couplings
        Atom                 a.u.       MegaHertz       Gauss      10(-4) cm-1
     1  C(13)             -0.05003     -56.24409     -20.06929     -18.76101
     2  C(13)              0.10097     113.50773      40.50238      37.86210
     3  H(1)               0.00595      26.57753       9.48352       8.86531
     4  C(13)             -0.07761     -87.24326     -31.13057     -29.10122
     5  H(1)              -0.00849     -37.94800     -13.54079     -12.65809
     6  C(13)              0.16567     186.24690      66.45753      62.12528
     7  H(1)               0.00700      31.29124      11.16549      10.43764
     8  H(1)              -0.00906     -40.50796     -14.45425     -13.51200
     9  H(1)              -0.00711     -31.79602     -11.34561     -10.60601
    10  C(13)              0.05831      65.55116      23.39028      21.86551
    11  H(1)              -0.00454     -20.29444      -7.24156      -6.76950
    12  O(17)              0.13356     -80.96235     -28.88938     -27.00613
    13  O(17)             -0.00055       0.33079       0.11803       0.11034
    14  H(1)              -0.00019      -0.84002      -0.29974      -0.28020
 --------------------------------------------------------
       Center         ----  Spin Dipole Couplings  ----
                      3XX-RR        3YY-RR        3ZZ-RR
 --------------------------------------------------------
     1   Atom        0.044646      0.015764     -0.060410
     2   Atom       -0.035950     -0.278600      0.314550
     3   Atom        0.004070      0.002583     -0.006654
     4   Atom       -0.066508      0.109276     -0.042768
     5   Atom        0.016914     -0.022046      0.005132
     6   Atom        0.422960     -0.240212     -0.182748
     7   Atom       -0.001712      0.004231     -0.002519
     8   Atom       -0.020828     -0.019145      0.039974
     9   Atom       -0.009545      0.048465     -0.038919
    10   Atom       -0.112880      0.053037      0.059843
    11   Atom       -0.000111     -0.006810      0.006921
    12   Atom       -0.036647     -0.006058      0.042705
    13   Atom        0.044411     -0.018036     -0.026375
    14   Atom        0.005214     -0.000354     -0.004860
 --------------------------------------------------------
                        XY            XZ            YZ
 --------------------------------------------------------
     1   Atom       -0.032580     -0.059246     -0.066126
     2   Atom       -0.051952      0.376948     -0.065984
     3   Atom       -0.001605     -0.005083      0.000499
     4   Atom       -0.011005     -0.170658      0.013077
     5   Atom       -0.029030     -0.011016      0.014722
     6   Atom        0.271164      0.353972      0.116220
     7   Atom       -0.005829     -0.006198      0.007273
     8   Atom        0.014558      0.004970     -0.031761
     9   Atom       -0.008634      0.016567      0.002236
    10   Atom        0.116444      0.104783      0.222934
    11   Atom        0.017820     -0.015512     -0.003450
    12   Atom       -0.021419     -0.011916      0.072374
    13   Atom        0.033697      0.014615      0.003873
    14   Atom       -0.002885      0.001692      0.000065
 --------------------------------------------------------


 ---------------------------------------------------------------------------------
              Anisotropic Spin Dipole Couplings in Principal Axis System
 ---------------------------------------------------------------------------------

       Atom             a.u.   MegaHertz   Gauss  10(-4) cm-1        Axes

              Baa    -0.1255   -16.840    -6.009    -5.617  0.3693  0.4625  0.8061
     1 C(13)  Bbb     0.0539     7.231     2.580     2.412 -0.0694  0.8787 -0.4724
              Bcc     0.0716     9.609     3.429     3.205  0.9267 -0.1185 -0.3566
 
              Baa    -0.2914   -39.109   -13.955   -13.045  0.4525  0.8720 -0.1865
     2 C(13)  Bbb    -0.2718   -36.479   -13.017   -12.168  0.7127 -0.4794 -0.5121
              Bcc     0.5633    75.588    26.972    25.214  0.5360 -0.0988  0.8384
 
              Baa    -0.0087    -4.632    -1.653    -1.545  0.3716  0.0118  0.9283
     3 H(1)   Bbb     0.0019     1.021     0.364     0.341  0.3412  0.9282 -0.1484
              Bcc     0.0068     3.611     1.289     1.205  0.8634 -0.3719 -0.3409
 
              Baa    -0.2257   -30.288   -10.808   -10.103  0.7311 -0.0026  0.6822
     4 C(13)  Bbb     0.0954    12.804     4.569     4.271  0.4316  0.7762 -0.4596
              Bcc     0.1303    17.484     6.239     5.832 -0.5284  0.6304  0.5687
 
              Baa    -0.0390   -20.829    -7.432    -6.948  0.4224  0.8863 -0.1900
     5 H(1)   Bbb    -0.0014    -0.739    -0.264    -0.247  0.4724 -0.0363  0.8806
              Bcc     0.0404    21.569     7.696     7.195  0.7735 -0.4618 -0.4341
 
              Baa    -0.3495   -46.902   -16.736   -15.645 -0.4964  0.4293  0.7545
     6 C(13)  Bbb    -0.3309   -44.406   -15.845   -14.812 -0.0601  0.8501 -0.5232
              Bcc     0.6804    91.308    32.581    30.457  0.8660  0.3051  0.3962
 
              Baa    -0.0086    -4.595    -1.639    -1.533  0.5507 -0.2079  0.8084
     7 H(1)   Bbb    -0.0048    -2.571    -0.918    -0.858  0.6808  0.6722 -0.2909
              Bcc     0.0134     7.166     2.557     2.390 -0.4830  0.7106  0.5117
 
              Baa    -0.0434   -23.155    -8.262    -7.724 -0.5622  0.7611  0.3235
     8 H(1)   Bbb    -0.0104    -5.563    -1.985    -1.856  0.8268  0.5090  0.2393
              Bcc     0.0538    28.718    10.247     9.579 -0.0174 -0.4020  0.9155
 
              Baa    -0.0467   -24.919    -8.892    -8.312 -0.4179 -0.0592  0.9065
     9 H(1)   Bbb    -0.0030    -1.611    -0.575    -0.537  0.8969  0.1321  0.4221
              Bcc     0.0497    26.530     9.466     8.849 -0.1447  0.9895 -0.0021
 
              Baa    -0.1760   -23.615    -8.427    -7.877  0.6880 -0.6547  0.3132
    10 C(13)  Bbb    -0.1581   -21.220    -7.572    -7.078 -0.6462 -0.3562  0.6749
              Bcc     0.3341    44.836    15.998    14.956  0.3303  0.6667  0.6681
 
              Baa    -0.0237   -12.626    -4.505    -4.212  0.6884 -0.6719  0.2733
    11 H(1)   Bbb    -0.0022    -1.180    -0.421    -0.394  0.2991  0.6062  0.7369
              Bcc     0.0259    13.806     4.926     4.605  0.6608  0.4255 -0.6182
 
              Baa    -0.0628     4.543     1.621     1.515  0.4125  0.7722 -0.4832
    12 O(17)  Bbb    -0.0356     2.574     0.918     0.859  0.8963 -0.2492  0.3669
              Bcc     0.0984    -7.117    -2.539    -2.374 -0.1629  0.5844  0.7949
 
              Baa    -0.0338     2.446     0.873     0.816 -0.4243  0.8048  0.4152
    13 O(17)  Bbb    -0.0279     2.016     0.719     0.672  0.0275 -0.4468  0.8942
              Bcc     0.0617    -4.462    -1.592    -1.488  0.9051  0.3908  0.1674
 
              Baa    -0.0052    -2.777    -0.991    -0.926 -0.1934 -0.1280  0.9727
    14 H(1)   Bbb    -0.0014    -0.768    -0.274    -0.256  0.3494  0.9175  0.1902
              Bcc     0.0066     3.545     1.265     1.183  0.9168 -0.3767  0.1327
 

 ---------------------------------------------------------------------------------

 No NMR shielding tensors so no spin-rotation constants.
 Leave Link  601 at Tue May 20 12:08:44 2025, MaxMem=  3758096384 cpu:               0.8 elap:               0.2
 (Enter /gpfs/fs1/soft/bebop/software/custom-built/gaussian/16-c.02/g16/l701.exe)
 ... and contract with generalized density number  0.
 Compute integral second derivatives.
 R6Disp: Adding Grimme-D2 dispersion energy 2nd derivatives to the Hessian.
   1 Symmetry operations used in ECPInt.
 ECPInt:  NShTT=    2016 NPrTT=    7252 LenC2=    2008 LenP2D=    5966.
 LDataN:  DoStor=T MaxTD1= 6 Len=  172
 Leave Link  701 at Tue May 20 12:08:44 2025, MaxMem=  3758096384 cpu:               0.6 elap:               0.1
 (Enter /gpfs/fs1/soft/bebop/software/custom-built/gaussian/16-c.02/g16/l702.exe)
 L702 exits ... SP integral derivatives will be done elsewhere.
 Leave Link  702 at Tue May 20 12:08:44 2025, MaxMem=  3758096384 cpu:               0.3 elap:               0.1
 (Enter /gpfs/fs1/soft/bebop/software/custom-built/gaussian/16-c.02/g16/l703.exe)
 Integral derivatives from FoFJK, PRISM(SPDF).
 Compute integral second derivatives, UseDBF=F ICtDFT=           0.
 Calling FoFJK, ICntrl=    100127 FMM=F ISym2X=0 I1Cent= 0 IOpClX= 1 NMat=1 NMatS=1 NMatT=0.
 FoFJK:  IHMeth= 1 ICntrl=  100127 DoSepK=T KAlg= 0 I1Cent=           0 FoldK=F
 IRaf=         1 NMat=       1 IRICut=       1 DoRegI=T DoRafI=F ISym2E= 0 IDoP0=0 IntGTp=1.
 FoFCou: FMM=F IPFlag=           0 FMFlag=      100000 FMFlg1=         800
         NFxFlg=           0 DoJE=F BraDBF=F KetDBF=F FulRan=T
         wScrn=  0.000000 ICntrl=    100527 IOpCl=  0 I1Cent=           0 NGrid=           0
         NMat0=    1 NMatS0=      1 NMatT0=    0 NMatD0=    1 NMtDS0=    0 NMtDT0=    0
 Symmetry not used in FoFCou.
 Leave Link  703 at Tue May 20 12:09:13 2025, MaxMem=  3758096384 cpu:             171.0 elap:              28.6
 (Enter /gpfs/fs1/soft/bebop/software/custom-built/gaussian/16-c.02/g16/l716.exe)
 Dipole        =-2.80107163D-01 3.56502124D-01 4.02437568D-01
 Polarizability= 0.00000000D+00 0.00000000D+00 0.00000000D+00
                 0.00000000D+00 0.00000000D+00 0.00000000D+00
 ***** Axes restored to original set *****
 -------------------------------------------------------------------
 Center     Atomic                   Forces (Hartrees/Bohr)
 Number     Number              X              Y              Z
 -------------------------------------------------------------------
      1        6          -0.000022176   -0.000026866   -0.000096361
      2        6           0.000007338   -0.000029153    0.000102576
      3        1           0.000005688   -0.000010972    0.000018792
      4        6           0.000083696    0.000057442    0.000009042
      5        1          -0.000017494   -0.000011908   -0.000014489
      6        6          -0.015046874   -0.039864253    0.049095841
      7        1          -0.000009974    0.000001671    0.000026881
      8        1          -0.000007795   -0.000009388    0.000033306
      9        1          -0.000018397   -0.000014552    0.000004775
     10        6           0.015031165    0.039999491   -0.049178638
     11        1          -0.000007805   -0.000051175    0.000010645
     12        8           0.000076367   -0.000053198    0.000067278
     13        8          -0.000097204   -0.000005207   -0.000079191
     14        1           0.000023466    0.000018069   -0.000000456
 -------------------------------------------------------------------
 Cartesian Forces:  Max     0.049178638 RMS     0.014201334
 -----------------------------------------------------------------------------------------------
                       Internal Coordinate Forces (Hartree/Bohr or radian)
  Cent   Atom   N1       Length/X         N2         Alpha/Y        N3         Beta/Z          J
 -----------------------------------------------------------------------------------------------
      1  C 
      2  C        1   0.000093(     1)
      3  H        1  -0.000006(     2)      2  -0.000039(    14)
      4  C        2  -0.000044(     3)      1  -0.000049(    15)      3  -0.000003(    26)     0
      5  H        2  -0.000026(     4)      1  -0.000000(    16)      4   0.000001(    27)     0
      6  C        4   0.000050(     5)      2  -0.000123(    17)      1  -0.000109(    28)     0
      7  H        4   0.000029(     6)      2   0.000003(    18)      6   0.000003(    29)     0
      8  H        6  -0.000027(     7)      4   0.000010(    19)      2  -0.000123(    30)     0
      9  H        6   0.000023(     8)      4   0.000009(    20)      8  -0.000004(    31)     0
     10  C        6   0.065063(     9)      4  -0.000140(    21)      8  -0.000157(    32)     0
     11  H       10  -0.000002(    10)      6  -0.000109(    22)      4  -0.000060(    33)     0
     12  O       10  -0.000014(    11)      6  -0.000053(    23)     11  -0.000049(    34)     0
     13  O       12   0.000104(    12)     10   0.000056(    24)      1   0.000068(    35)     0
     14  H       13  -0.000029(    13)     12   0.000000(    25)     10   0.000010(    36)     0
 -----------------------------------------------------------------------------------------------
 Internal  Forces:  Max     0.065062662 RMS     0.010843965
 Force constants in internal coordinates: 
                1             2             3             4             5 
      1  0.513307D+00
      2  0.130912D-01  0.360692D+00
      3  0.179440D-02  0.516137D-02  0.598485D+00
      4  0.412108D-03  0.146169D-03  0.103526D-02  0.368642D+00
      5 -0.224698D+00 -0.239472D-02  0.288703D+00  0.699987D-03  0.845955D+00
      6  0.126850D-02  0.202564D-03  0.425022D-02  0.239778D-03  0.289424D-02
      7  0.223694D-02  0.656095D-04 -0.704591D-02  0.522802D-04 -0.250690D-02
      8 -0.102953D-03  0.281354D-05  0.487889D-03  0.184171D-03  0.223331D-02
      9 -0.690192D-01 -0.597606D-02 -0.321826D-01  0.980448D-03  0.642251D-01
     10 -0.833866D-02  0.557451D-03 -0.183661D-02  0.100522D-03  0.567097D-02
     11 -0.419046D-02 -0.626115D-03  0.233639D-01  0.433617D-03  0.184932D-01
     12  0.302245D-02  0.129167D-03  0.660193D-03  0.184423D-03 -0.638431D-02
     13  0.120948D-03 -0.590327D-04 -0.102818D-02 -0.619580D-04 -0.767397D-03
     14 -0.323633D-02 -0.792399D-03 -0.438794D-01  0.569876D-04 -0.721773D-02
     15 -0.197505D+00  0.271212D-01  0.712221D+00 -0.221240D-01  0.833124D+00
     16  0.104690D-01 -0.692838D-04 -0.243443D-01  0.477652D-03  0.108711D-02
     17 -0.740986D+00  0.359148D-02  0.986772D+00  0.408680D-02  0.169662D+01
     18  0.728055D-02  0.102540D-02  0.233804D-01 -0.559204D-03 -0.306817D-01
     19  0.651415D-03  0.196368D-03  0.305711D-02 -0.253110D-03  0.357625D-01
     20 -0.269915D-02  0.289305D-03  0.659651D-02  0.108054D-02  0.286115D-01
     21 -0.896094D+00 -0.142182D-01  0.702285D+00  0.493306D-02  0.173559D+01
     22  0.254374D-01  0.185601D-02  0.214975D-01  0.290077D-03 -0.891520D-02
     23  0.289539D-01  0.379692D-05  0.319785D-02 -0.284683D-03 -0.142594D-01
     24  0.490620D-03  0.155421D-03 -0.763535D-02  0.261336D-03 -0.559017D-02
     25  0.908540D-03  0.186944D-03  0.105936D-02 -0.263627D-04 -0.644685D-03
     26 -0.354069D-01 -0.378322D-02  0.172518D-01 -0.571912D-03  0.926375D-02
     27 -0.247483D-01 -0.103888D-02  0.244460D-01  0.518906D-03 -0.536122D-02
     28  0.191607D+00 -0.218850D-01 -0.375278D+00  0.263890D-02 -0.357683D+00
     29  0.524467D-02 -0.131106D-02 -0.307841D-01 -0.677071D-03  0.219098D-01
     30  0.433225D+00 -0.256152D-01 -0.687616D+00  0.365502D-02 -0.999556D+00
     31 -0.450035D-02 -0.851596D-04  0.100927D-01 -0.208565D-03 -0.705884D-02
     32  0.445399D+00 -0.254086D-01 -0.731471D+00  0.412454D-02 -0.967490D+00
     33 -0.589136D-01 -0.549099D-02 -0.637881D-01  0.851216D-03  0.359014D-01
     34 -0.200307D-01 -0.515825D-02 -0.528980D-01  0.160081D-04  0.361763D-02
     35  0.536482D-02  0.851245D-03  0.807788D-02 -0.325124D-03  0.281647D-02
     36  0.661918D-03  0.320426D-04 -0.644696D-03 -0.339877D-04 -0.544148D-03
                6             7             8             9            10 
      6  0.358032D+00
      7 -0.162451D-03  0.370226D+00
      8  0.626406D-03  0.158052D-03  0.357583D+00
      9 -0.745592D-03  0.233042D-02 -0.667345D-04  0.119896D+00
     10 -0.279857D-04 -0.401527D-03 -0.574389D-05  0.481916D-02  0.356818D+00
     11  0.355085D-03  0.789128D-03  0.146987D-02  0.121082D-01  0.772932D-02
     12  0.852280D-04 -0.115065D-03  0.528589D-03  0.852813D-02 -0.562057D-03
     13 -0.421029D-04 -0.128887D-04 -0.142273D-03 -0.138366D-03 -0.949945D-03
     14  0.142630D-02 -0.178889D-03  0.921188D-04  0.325536D-01  0.790440D-03
     15  0.621576D-02 -0.202283D-01 -0.625387D-03 -0.733537D-01 -0.208544D-02
     16  0.894991D-03 -0.315571D-03 -0.104984D-02  0.871550D-02  0.100118D-02
     17 -0.187587D-01 -0.317214D-01  0.569784D-02  0.144374D+00  0.198464D-01
     18  0.794832D-03 -0.460192D-02  0.965596D-03  0.131853D-02  0.195243D-03
     19  0.314033D-02 -0.603322D-02 -0.164859D-01  0.604564D-02 -0.393352D-04
     20 -0.126009D-02 -0.137619D-01  0.920285D-03  0.210102D-02  0.850582D-04
     21 -0.297121D-02  0.497618D-02 -0.313219D-02  0.325541D+00  0.306511D-01
     22 -0.150759D-03 -0.148661D-02 -0.105335D-03 -0.321542D-01  0.243637D-03
     23 -0.475935D-03 -0.341255D-02 -0.138050D-02  0.525487D-01 -0.750357D-02
     24  0.176425D-03  0.161606D-03  0.371638D-04  0.592464D-02 -0.153063D-01
     25  0.182992D-04  0.791004D-04  0.272090D-03 -0.115027D-02  0.470267D-03
     26 -0.128249D-03  0.128148D-02 -0.253079D-03 -0.197998D-02 -0.242810D-04
     27  0.135262D-02  0.529814D-03  0.256267D-03  0.308980D-02 -0.343180D-03
     28 -0.291224D-02 -0.911428D-02  0.103731D-02  0.480048D-02  0.860008D-02
     29 -0.852865D-03  0.203246D-02  0.595138D-03 -0.277706D-02  0.618728D-04
     30 -0.192656D-02 -0.170214D-01  0.130018D-02 -0.227956D-01  0.855133D-02
     31 -0.153768D-02  0.284672D-02  0.583899D-02  0.146787D-02 -0.110280D-03
     32  0.164582D-02 -0.575171D-02 -0.499856D-03 -0.452308D-01  0.786316D-02
     33  0.381128D-03 -0.162830D-02 -0.112953D-02  0.419320D-01  0.123141D-01
     34  0.337647D-03 -0.153579D-02 -0.126060D-02  0.151288D-01  0.132982D-01
     35  0.148649D-03 -0.957549D-03 -0.785349D-03 -0.175585D-01  0.393866D-02
     36 -0.947532D-04  0.152335D-03  0.622344D-04  0.611453D-04 -0.634097D-03
               11            12            13            14            15 
     11  0.388924D+00
     12  0.216676D-01  0.305135D+00
     13  0.447825D-02 -0.502723D-02  0.531923D+00
     14 -0.588145D-02  0.288827D-03  0.242203D-03  0.227064D+00
     15  0.823530D-01 -0.615058D-03 -0.388785D-02 -0.184998D+00  0.309190D+01
     16  0.197062D-03 -0.218555D-03 -0.866356D-05 -0.433891D-02  0.968864D-01
     17  0.779363D-01 -0.643822D-02 -0.395269D-02 -0.141879D+00  0.401000D+01
     18  0.926633D-03  0.329469D-03 -0.312987D-04  0.449788D-02  0.236025D-01
     19 -0.296435D-02 -0.295871D-04  0.167894D-03  0.871214D-03  0.247084D-01
     20 -0.752672D-03 -0.555391D-03  0.172066D-03  0.329812D-04 -0.134629D-01
     21  0.615136D-01 -0.997161D-02 -0.322539D-02 -0.201779D-01  0.334716D+01
[...]
 Leave Link  401 at Tue May 20 12:19:44 2025, MaxMem=  3758096384 cpu:               2.8 elap:               0.5
 (Enter /gpfs/fs1/soft/bebop/software/custom-built/gaussian/16-c.02/g16/l502.exe)
 Keep R1 and R2 ints in memory in canonical form, NReq=165843629.
 FoFCou: FMM=F IPFlag=           0 FMFlag=           0 FMFlg1=           0
         NFxFlg=           0 DoJE=F BraDBF=F KetDBF=F FulRan=T
         wScrn=  0.000000 ICntrl=       600 IOpCl=  0 I1Cent=           0 NGrid=           0
         NMat0=    1 NMatS0=   8911 NMatT0=    0 NMatD0=    1 NMtDS0=    0 NMtDT0=    0
 Symmetry not used in FoFCou.
 Two-electron integral symmetry not used.
 UHF open shell SCF:
 Using DIIS extrapolation, IDIIS=  1040.
 NGot=  3758096384 LenX=  3599224750 LenY=  3599204709
 Requested convergence on RMS density matrix=1.00D-08 within  32 cycles.
 Requested convergence on MAX density matrix=1.00D-06.
 Requested convergence on             energy=1.00D-06.
 No special actions if energy rises.
 Integral accuracy reduced to 1.0D-05 until final iterations.

 Cycle   1  Pass 0  IDiag  1:
 E= -344.611823456078    
 DIIS: error= 8.31D-03 at cycle   1 NSaved=   1.
 NSaved= 1 IEnMin= 1 EnMin= -344.611823456078     IErMin= 1 ErrMin= 8.31D-03
 ErrMax= 8.31D-03  0.00D+00 EMaxC= 1.00D-01 BMatC= 4.17D-02 BMatP= 4.17D-02
 IDIUse=3 WtCom= 9.17D-01 WtEn= 8.31D-02
 Coeff-Com:  0.100D+01
 Coeff-En:   0.100D+01
 Coeff:      0.100D+01
 Gap=     0.660 Goal=   None    Shift=    0.000
 Gap=     0.728 Goal=   None    Shift=    0.000
 GapD=    0.660 DampG=2.000 DampE=1.000 DampFc=2.0000 IDamp=-1.
 RMSDP=1.27D-03 MaxDP=5.39D-02              OVMax= 3.17D-02

 Cycle   2  Pass 0  IDiag  1:
 E= -344.625977969023     Delta-E=       -0.014154512945 Rises=F Damp=F
 DIIS: error= 1.22D-03 at cycle   2 NSaved=   2.
 NSaved= 2 IEnMin= 2 EnMin= -344.625977969023     IErMin= 2 ErrMin= 1.22D-03
 ErrMax= 1.22D-03  0.00D+00 EMaxC= 1.00D-01 BMatC= 2.03D-03 BMatP= 4.17D-02
 IDIUse=3 WtCom= 9.88D-01 WtEn= 1.22D-02
 Coeff-Com: -0.107D+00 0.111D+01
 Coeff-En:   0.000D+00 0.100D+01
 Coeff:     -0.106D+00 0.111D+01
 Gap=     0.308 Goal=   None    Shift=    0.000
 Gap=     0.308 Goal=   None    Shift=    0.000
 RMSDP=3.16D-04 MaxDP=9.48D-03 DE=-1.42D-02 OVMax= 1.06D-02

 Cycle   3  Pass 0  IDiag  1:
 E= -344.626715455958     Delta-E=       -0.000737486934 Rises=F Damp=F
 DIIS: error= 1.88D-03 at cycle   3 NSaved=   3.
 NSaved= 3 IEnMin= 3 EnMin= -344.626715455958     IErMin= 2 ErrMin= 1.22D-03
 ErrMax= 1.88D-03  0.00D+00 EMaxC= 1.00D-01 BMatC= 1.20D-03 BMatP= 2.03D-03
 IDIUse=3 WtCom= 9.81D-01 WtEn= 1.88D-02
 Coeff-Com: -0.826D-01 0.515D+00 0.567D+00
 Coeff-En:   0.000D+00 0.000D+00 0.100D+01
 Coeff:     -0.811D-01 0.506D+00 0.575D+00
 Gap=     0.309 Goal=   None    Shift=    0.000
 Gap=     0.308 Goal=   None    Shift=    0.000
 RMSDP=1.22D-04 MaxDP=4.53D-03 DE=-7.37D-04 OVMax= 3.54D-03

 Cycle   4  Pass 0  IDiag  1:
 E= -344.626950189018     Delta-E=       -0.000234733060 Rises=F Damp=F
 DIIS: error= 3.86D-04 at cycle   4 NSaved=   4.
 NSaved= 4 IEnMin= 4 EnMin= -344.626950189018     IErMin= 4 ErrMin= 3.86D-04
 ErrMax= 3.86D-04  0.00D+00 EMaxC= 1.00D-01 BMatC= 1.12D-04 BMatP= 1.20D-03
 IDIUse=3 WtCom= 9.96D-01 WtEn= 3.86D-03
 Coeff-Com: -0.701D-02-0.211D-01 0.203D+00 0.825D+00
 Coeff-En:   0.000D+00 0.000D+00 0.000D+00 0.100D+01
 Coeff:     -0.698D-02-0.211D-01 0.202D+00 0.826D+00
 Gap=     0.309 Goal=   None    Shift=    0.000
 Gap=     0.308 Goal=   None    Shift=    0.000
 RMSDP=5.87D-05 MaxDP=1.26D-03 DE=-2.35D-04 OVMax= 2.64D-03

 Cycle   5  Pass 0  IDiag  1:
 E= -344.626986556663     Delta-E=       -0.000036367645 Rises=F Damp=F
 DIIS: error= 1.20D-04 at cycle   5 NSaved=   5.
 NSaved= 5 IEnMin= 5 EnMin= -344.626986556663     IErMin= 5 ErrMin= 1.20D-04
 ErrMax= 1.20D-04  0.00D+00 EMaxC= 1.00D-01 BMatC= 1.86D-05 BMatP= 1.12D-04
 IDIUse=3 WtCom= 9.99D-01 WtEn= 1.20D-03
 Coeff-Com:  0.726D-02-0.758D-01 0.156D-01 0.357D+00 0.696D+00
 Coeff-En:   0.000D+00 0.000D+00 0.000D+00 0.000D+00 0.100D+01
 Coeff:      0.726D-02-0.757D-01 0.156D-01 0.357D+00 0.696D+00
 Gap=     0.308 Goal=   None    Shift=    0.000
 Gap=     0.308 Goal=   None    Shift=    0.000
 RMSDP=2.66D-05 MaxDP=5.92D-04 DE=-3.64D-05 OVMax= 1.57D-03

 Cycle   6  Pass 0  IDiag  1:
 E= -344.626994420360     Delta-E=       -0.000007863697 Rises=F Damp=F
 DIIS: error= 8.16D-05 at cycle   6 NSaved=   6.
 NSaved= 6 IEnMin= 6 EnMin= -344.626994420360     IErMin= 6 ErrMin= 8.16D-05
 ErrMax= 8.16D-05  0.00D+00 EMaxC= 1.00D-01 BMatC= 2.34D-06 BMatP= 1.86D-05
 IDIUse=1 WtCom= 1.00D+00 WtEn= 0.00D+00
 Coeff-Com:  0.312D-02-0.194D-01-0.313D-01-0.376D-01 0.190D+00 0.895D+00
 Coeff:      0.312D-02-0.194D-01-0.313D-01-0.376D-01 0.190D+00 0.895D+00
 Gap=     0.308 Goal=   None    Shift=    0.000
 Gap=     0.308 Goal=   None    Shift=    0.000
 RMSDP=1.65D-05 MaxDP=3.90D-04 DE=-7.86D-06 OVMax= 1.33D-03

 Cycle   7  Pass 0  IDiag  1:
 E= -344.626997114614     Delta-E=       -0.000002694254 Rises=F Damp=F
 DIIS: error= 6.64D-05 at cycle   7 NSaved=   7.
 NSaved= 7 IEnMin= 7 EnMin= -344.626997114614     IErMin= 7 ErrMin= 6.64D-05
 ErrMax= 6.64D-05  0.00D+00 EMaxC= 1.00D-01 BMatC= 5.92D-07 BMatP= 2.34D-06
 IDIUse=1 WtCom= 1.00D+00 WtEn= 0.00D+00
 Coeff-Com: -0.113D-02 0.129D-01-0.334D-02-0.600D-01-0.131D+00 0.927D-02
 Coeff-Com:  0.117D+01
 Coeff:     -0.113D-02 0.129D-01-0.334D-02-0.600D-01-0.131D+00 0.927D-02
 Coeff:      0.117D+01
 Gap=     0.308 Goal=   None    Shift=    0.000
 Gap=     0.308 Goal=   None    Shift=    0.000
 RMSDP=1.26D-05 MaxDP=3.32D-04 DE=-2.69D-06 OVMax= 1.23D-03

 Cycle   8  Pass 0  IDiag  1:
 E= -344.626998502235     Delta-E=       -0.000001387621 Rises=F Damp=F
 DIIS: error= 4.10D-05 at cycle   8 NSaved=   8.
 NSaved= 8 IEnMin= 8 EnMin= -344.626998502235     IErMin= 8 ErrMin= 4.10D-05
 ErrMax= 4.10D-05  0.00D+00 EMaxC= 1.00D-01 BMatC= 2.58D-07 BMatP= 5.92D-07
 IDIUse=1 WtCom= 1.00D+00 WtEn= 0.00D+00
 Coeff-Com: -0.114D-02 0.824D-02 0.966D-02 0.767D-02-0.843D-01-0.292D+00
 Coeff-Com:  0.199D+00 0.115D+01
 Coeff:     -0.114D-02 0.824D-02 0.966D-02 0.767D-02-0.843D-01-0.292D+00
 Coeff:      0.199D+00 0.115D+01
 Gap=     0.308 Goal=   None    Shift=    0.000
 Gap=     0.308 Goal=   None    Shift=    0.000
 RMSDP=9.91D-06 MaxDP=3.12D-04 DE=-1.39D-06 OVMax= 9.74D-04

 Initial convergence to 1.0D-05 achieved.  Increase integral accuracy.
 Cycle   9  Pass 1  IDiag  1:
 E= -344.627007436951     Delta-E=       -0.000008934716 Rises=F Damp=F
 DIIS: error= 2.85D-05 at cycle   1 NSaved=   1.
 NSaved= 1 IEnMin= 1 EnMin= -344.627007436951     IErMin= 1 ErrMin= 2.85D-05
 ErrMax= 2.85D-05  0.00D+00 EMaxC= 1.00D-01 BMatC= 4.74D-07 BMatP= 4.74D-07
 IDIUse=1 WtCom= 1.00D+00 WtEn= 0.00D+00
 Coeff-Com:  0.100D+01
 Coeff:      0.100D+01
 Gap=     0.308 Goal=   None    Shift=    0.000
 Gap=     0.308 Goal=   None    Shift=    0.000
 RMSDP=9.91D-06 MaxDP=3.12D-04 DE=-8.93D-06 OVMax= 3.34D-04

 Cycle  10  Pass 1  IDiag  1:
 E= -344.627007693206     Delta-E=       -0.000000256256 Rises=F Damp=F
 DIIS: error= 1.82D-05 at cycle   2 NSaved=   2.
 NSaved= 2 IEnMin= 2 EnMin= -344.627007693206     IErMin= 2 ErrMin= 1.82D-05
 ErrMax= 1.82D-05  0.00D+00 EMaxC= 1.00D-01 BMatC= 6.96D-08 BMatP= 4.74D-07
 IDIUse=1 WtCom= 1.00D+00 WtEn= 0.00D+00
 Coeff-Com: -0.565D-01 0.106D+01
 Coeff:     -0.565D-01 0.106D+01
 Gap=     0.308 Goal=   None    Shift=    0.000
 Gap=     0.308 Goal=   None    Shift=    0.000
 RMSDP=2.78D-06 MaxDP=7.50D-05 DE=-2.56D-07 OVMax= 2.64D-04

 Cycle  11  Pass 1  IDiag  1:
 E= -344.627007791875     Delta-E=       -0.000000098669 Rises=F Damp=F
 DIIS: error= 1.73D-05 at cycle   3 NSaved=   3.
 NSaved= 3 IEnMin= 3 EnMin= -344.627007791875     IErMin= 3 ErrMin= 1.73D-05
 ErrMax= 1.73D-05  0.00D+00 EMaxC= 1.00D-01 BMatC= 4.55D-08 BMatP= 6.96D-08
 IDIUse=1 WtCom= 1.00D+00 WtEn= 0.00D+00
 Coeff-Com: -0.111D+00 0.409D+00 0.702D+00
 Coeff:     -0.111D+00 0.409D+00 0.702D+00
 Gap=     0.308 Goal=   None    Shift=    0.000
 Gap=     0.308 Goal=   None    Shift=    0.000
 RMSDP=1.61D-06 MaxDP=5.60D-05 DE=-9.87D-08 OVMax= 1.53D-04

 Cycle  12  Pass 1  IDiag  1:
 E= -344.627007840214     Delta-E=       -0.000000048339 Rises=F Damp=F
 DIIS: error= 1.00D-05 at cycle   4 NSaved=   4.
 NSaved= 4 IEnMin= 4 EnMin= -344.627007840214     IErMin= 4 ErrMin= 1.00D-05
 ErrMax= 1.00D-05  0.00D+00 EMaxC= 1.00D-01 BMatC= 1.95D-08 BMatP= 4.55D-08
 IDIUse=1 WtCom= 1.00D+00 WtEn= 0.00D+00
 Coeff-Com:  0.439D-01-0.674D+00-0.715D-01 0.170D+01
 Coeff:      0.439D-01-0.674D+00-0.715D-01 0.170D+01
 Gap=     0.308 Goal=   None    Shift=    0.000
 Gap=     0.308 Goal=   None    Shift=    0.000
 RMSDP=3.35D-06 MaxDP=9.60D-05 DE=-4.83D-08 OVMax= 3.53D-04

 Cycle  13  Pass 1  IDiag  1:
 E= -344.627007904693     Delta-E=       -0.000000064479 Rises=F Damp=F
 DIIS: error= 5.29D-06 at cycle   5 NSaved=   5.
 NSaved= 5 IEnMin= 5 EnMin= -344.627007904693     IErMin= 5 ErrMin= 5.29D-06
 ErrMax= 5.29D-06  0.00D+00 EMaxC= 1.00D-01 BMatC= 7.63D-09 BMatP= 1.95D-08
 IDIUse=1 WtCom= 1.00D+00 WtEn= 0.00D+00
 Coeff-Com:  0.712D-01-0.547D+00-0.344D+00 0.921D+00 0.899D+00
 Coeff:      0.712D-01-0.547D+00-0.344D+00 0.921D+00 0.899D+00
 Gap=     0.308 Goal=   None    Shift=    0.000
 Gap=     0.308 Goal=   None    Shift=    0.000
 RMSDP=2.11D-06 MaxDP=6.71D-05 DE=-6.45D-08 OVMax= 2.06D-04

 Cycle  14  Pass 1  IDiag  1:
 E= -344.627007921487     Delta-E=       -0.000000016793 Rises=F Damp=F
 DIIS: error= 1.48D-06 at cycle   6 NSaved=   6.
 NSaved= 6 IEnMin= 6 EnMin= -344.627007921487     IErMin= 6 ErrMin= 1.48D-06
 ErrMax= 1.48D-06  0.00D+00 EMaxC= 1.00D-01 BMatC= 1.25D-09 BMatP= 7.63D-09
 IDIUse=1 WtCom= 1.00D+00 WtEn= 0.00D+00
 Coeff-Com:  0.187D-01-0.618D-01-0.124D+00-0.192D-01 0.368D+00 0.818D+00
 Coeff:      0.187D-01-0.618D-01-0.124D+00-0.192D-01 0.368D+00 0.818D+00
 Gap=     0.308 Goal=   None    Shift=    0.000
 Gap=     0.308 Goal=   None    Shift=    0.000
 RMSDP=6.19D-07 MaxDP=1.96D-05 DE=-1.68D-08 OVMax= 5.92D-05

 Cycle  15  Pass 1  IDiag  1:
 E= -344.627007922962     Delta-E=       -0.000000001475 Rises=F Damp=F
 DIIS: error= 5.13D-07 at cycle   7 NSaved=   7.
 NSaved= 7 IEnMin= 7 EnMin= -344.627007922962     IErMin= 7 ErrMin= 5.13D-07
 ErrMax= 5.13D-07  0.00D+00 EMaxC= 1.00D-01 BMatC= 1.90D-10 BMatP= 1.25D-09
 IDIUse=1 WtCom= 1.00D+00 WtEn= 0.00D+00
 Coeff-Com: -0.646D-02 0.802D-01 0.160D-01-0.183D+00-0.198D-01 0.297D+00
 Coeff-Com:  0.816D+00
 Coeff:     -0.646D-02 0.802D-01 0.160D-01-0.183D+00-0.198D-01 0.297D+00
 Coeff:      0.816D+00
 Gap=     0.308 Goal=   None    Shift=    0.000
 Gap=     0.308 Goal=   None    Shift=    0.000
 RMSDP=1.72D-07 MaxDP=5.29D-06 DE=-1.47D-09 OVMax= 1.50D-05

 Cycle  16  Pass 1  IDiag  1:
 E= -344.627007923104     Delta-E=       -0.000000000142 Rises=F Damp=F
 DIIS: error= 1.68D-07 at cycle   8 NSaved=   8.
 NSaved= 8 IEnMin= 8 EnMin= -344.627007923104     IErMin= 8 ErrMin= 1.68D-07
 ErrMax= 1.68D-07  0.00D+00 EMaxC= 1.00D-01 BMatC= 2.37D-11 BMatP= 1.90D-10
 IDIUse=1 WtCom= 1.00D+00 WtEn= 0.00D+00
 Coeff-Com: -0.486D-02 0.354D-01 0.249D-01-0.534D-01-0.650D-01-0.496D-01
 Coeff-Com:  0.231D+00 0.882D+00
 Coeff:     -0.486D-02 0.354D-01 0.249D-01-0.534D-01-0.650D-01-0.496D-01
 Coeff:      0.231D+00 0.882D+00
 Gap=     0.308 Goal=   None    Shift=    0.000
 Gap=     0.308 Goal=   None    Shift=    0.000
 RMSDP=5.38D-08 MaxDP=1.68D-06 DE=-1.42D-10 OVMax= 4.63D-06

 Cycle  17  Pass 1  IDiag  1:
 E= -344.627007923121     Delta-E=       -0.000000000017 Rises=F Damp=F
 DIIS: error= 5.49D-08 at cycle   9 NSaved=   9.
 NSaved= 9 IEnMin= 9 EnMin= -344.627007923121     IErMin= 9 ErrMin= 5.49D-08
 ErrMax= 5.49D-08  0.00D+00 EMaxC= 1.00D-01 BMatC= 2.04D-12 BMatP= 2.37D-11
 IDIUse=1 WtCom= 1.00D+00 WtEn= 0.00D+00
 Coeff-Com:  0.722D-03-0.894D-02-0.207D-02 0.208D-01 0.297D-02-0.350D-01
 Coeff-Com: -0.101D+00 0.321D-01 0.109D+01
 Coeff:      0.722D-03-0.894D-02-0.207D-02 0.208D-01 0.297D-02-0.350D-01
 Coeff:     -0.101D+00 0.321D-01 0.109D+01
 Gap=     0.308 Goal=   None    Shift=    0.000
 Gap=     0.308 Goal=   None    Shift=    0.000
 RMSDP=1.88D-08 MaxDP=4.04D-07 DE=-1.74D-11 OVMax= 1.16D-06

 Cycle  18  Pass 1  IDiag  1:
 E= -344.627007923123     Delta-E=       -0.000000000002 Rises=F Damp=F
 DIIS: error= 2.44D-08 at cycle  10 NSaved=  10.
 NSaved=10 IEnMin=10 EnMin= -344.627007923123     IErMin=10 ErrMin= 2.44D-08
 ErrMax= 2.44D-08  0.00D+00 EMaxC= 1.00D-01 BMatC= 3.86D-13 BMatP= 2.04D-12
 IDIUse=1 WtCom= 1.00D+00 WtEn= 0.00D+00
 Coeff-Com:  0.681D-03-0.557D-02-0.319D-02 0.102D-01 0.810D-02-0.332D-02
 Coeff-Com: -0.524D-01-0.858D-01 0.223D+00 0.908D+00
 Coeff:      0.681D-03-0.557D-02-0.319D-02 0.102D-01 0.810D-02-0.332D-02
 Coeff:     -0.524D-01-0.858D-01 0.223D+00 0.908D+00
 Gap=     0.308 Goal=   None    Shift=    0.000
 Gap=     0.308 Goal=   None    Shift=    0.000
 RMSDP=6.69D-09 MaxDP=1.36D-07 DE=-2.27D-12 OVMax= 4.41D-07

 SCF Done:  E(UwB97XD) =  -344.627007923     A.U. after   18 cycles
            NFock= 18  Conv=0.67D-08     -V/T= 2.0090
 <Sx>= 0.0000 <Sy>= 0.0000 <Sz>= 0.5000 <S**2>= 0.8126 S= 0.5308
 <L.S>=  0.00000000000    
 KE= 3.415504714658D+02 PE=-1.371810985688D+03 EE= 4.019517546240D+02
 Annihilation of the first spin contaminant:
 S**2 before annihilation     0.8126,   after     0.7522
 Leave Link  502 at Tue May 20 12:19:54 2025, MaxMem=  3758096384 cpu:              48.1 elap:              10.1
 (Enter /gpfs/fs1/soft/bebop/software/custom-built/gaussian/16-c.02/g16/l508.exe)
 QCSCF skips out because SCF is already converged.
 Leave Link  508 at Tue May 20 12:19:54 2025, MaxMem=  3758096384 cpu:               0.0 elap:               0.0
 (Enter /gpfs/fs1/soft/bebop/software/custom-built/gaussian/16-c.02/g16/l801.exe)
 DoSCS=F DFT=T ScalE2(SS,OS)=  1.000000  1.000000
 Range of M.O.s used for correlation:     1   133
 NBasis=   133 NAE=    27 NBE=    26 NFC=     0 NFV=     0
 NROrb=    133 NOA=    27 NOB=    26 NVA=   106 NVB=   107
 Leave Link  801 at Tue May 20 12:19:54 2025, MaxMem=  3758096384 cpu:               0.1 elap:               0.0
 (Enter /gpfs/fs1/soft/bebop/software/custom-built/gaussian/16-c.02/g16/l1101.exe)
 Using compressed storage, NAtomX=    14.
 Will process     15 centers per pass.
   1 Symmetry operations used in ECPInt.
 ECPInt:  NShTT=    2016 NPrTT=    7252 LenC2=    2002 LenP2D=    5850.
 LDataN:  DoStor=T MaxTD1= 5 Len=  102
 R6Disp: Adding Grimme-D2 dispersion energy 1st derivatives to the gradient.
 Leave Link 1101 at Tue May 20 12:19:54 2025, MaxMem=  3758096384 cpu:               0.6 elap:               0.1
 (Enter /gpfs/fs1/soft/bebop/software/custom-built/gaussian/16-c.02/g16/l1102.exe)
 Symmetrizing basis deriv contribution to polar:
 IMax=3 JMax=2 DiffMx= 0.00D+00
 Leave Link 1102 at Tue May 20 12:19:54 2025, MaxMem=  3758096384 cpu:               0.1 elap:               0.0
 (Enter /gpfs/fs1/soft/bebop/software/custom-built/gaussian/16-c.02/g16/l1110.exe)
 Forming Gx(P) for the SCF density, NAtomX=    14.
 Integral derivatives from FoFJK, PRISM(SPDF).
 Do as many integral derivatives as possible in FoFJK.
 G2DrvN: MDV=    3758094834.
 G2DrvN: will do    15 centers at a time, making    1 passes.
 Calling FoFCou, ICntrl=  3107 FMM=F I1Cent=   0 AccDes= 0.00D+00.
 FoFJK:  IHMeth= 1 ICntrl=    3107 DoSepK=T KAlg= 0 I1Cent=           0 FoldK=F
 IRaf=         1 NMat=       1 IRICut=       1 DoRegI=T DoRafI=F ISym2E= 0 IDoP0=0 IntGTp=1.
 FoFCou: FMM=F IPFlag=           0 FMFlag=      100000 FMFlg1=           0
         NFxFlg=           0 DoJE=F BraDBF=F KetDBF=F FulRan=T
         wScrn=  0.000000 ICntrl=      3507 IOpCl=  0 I1Cent=           0 NGrid=           0
         NMat0=    1 NMatS0=      1 NMatT0=    0 NMatD0=    1 NMtDS0=    0 NMtDT0=    0
 Symmetry not used in FoFCou.
 End of G2Drv F.D. properties file   721 does not exist.
 End of G2Drv F.D. properties file   722 does not exist.
 End of G2Drv F.D. properties file   788 does not exist.
 Leave Link 1110 at Tue May 20 12:20:08 2025, MaxMem=  3758096384 cpu:              83.0 elap:              13.9
 (Enter /gpfs/fs1/soft/bebop/software/custom-built/gaussian/16-c.02/g16/l1002.exe)
 Minotr:  UHF open shell wavefunction.
          IDoAtm=11111111111111
          Direct CPHF calculation.
          Differentiating once with respect to nuclear coordinates.
          Requested convergence is 1.0D-08 RMS, and 1.0D-07 maximum.
          Secondary convergence is 1.0D-12 RMS, and 1.0D-12 maximum.
          NewPWx=T KeepS1=F KeepF1=F KeepIn=T MapXYZ=F SortEE=F KeepMc=T.
         4145 words used for storage of precomputed grid.
 Keep R1 and R2 ints in memory in canonical form, NReq=165837164.
 FoFCou: FMM=F IPFlag=           0 FMFlag=           0 FMFlg1=           0
         NFxFlg=           0 DoJE=F BraDBF=F KetDBF=F FulRan=T
         wScrn=  0.000000 ICntrl=       600 IOpCl=  0 I1Cent=           0 NGrid=           0
         NMat0=    1 NMatS0=   8911 NMatT0=    0 NMatD0=    1 NMtDS0=    0 NMtDT0=    0
 Symmetry not used in FoFCou.
 Two-electron integral symmetry not used.
          MDV=    3758096384 using IRadAn=       1.
          Solving linear equations simultaneously, MaxMat=       0.
          There are    45 degrees of freedom in the 1st order CPHF.  IDoFFX=6 NUNeed=     0.
     39 vectors produced by pass  0 Test12= 1.25D-14 2.22D-09 XBig12= 1.97D-01 1.73D-01.
 AX will form    39 AO Fock derivatives at one time.
     39 vectors produced by pass  1 Test12= 1.25D-14 2.22D-09 XBig12= 4.27D-02 8.31D-02.
     39 vectors produced by pass  2 Test12= 1.25D-14 2.22D-09 XBig12= 2.90D-03 1.23D-02.
     39 vectors produced by pass  3 Test12= 1.25D-14 2.22D-09 XBig12= 3.61D-05 8.87D-04.
     39 vectors produced by pass  4 Test12= 1.25D-14 2.22D-09 XBig12= 4.80D-07 8.53D-05.
     39 vectors produced by pass  5 Test12= 1.25D-14 2.22D-09 XBig12= 6.15D-09 1.08D-05.
     39 vectors produced by pass  6 Test12= 1.25D-14 2.22D-09 XBig12= 6.33D-11 7.23D-07.
     25 vectors produced by pass  7 Test12= 1.25D-14 2.22D-09 XBig12= 4.99D-13 6.76D-08.
      4 vectors produced by pass  8 Test12= 1.25D-14 2.22D-09 XBig12= 3.91D-15 5.73D-09.
 InvSVY:  IOpt=1 It=  1 EMax= 1.67D-15
 Solved reduced A of dimension   302 with    39 vectors.
 End of Minotr F.D. properties file   721 does not exist.
 End of Minotr F.D. properties file   722 does not exist.
 End of Minotr F.D. properties file   788 does not exist.
 Leave Link 1002 at Tue May 20 12:20:23 2025, MaxMem=  3758096384 cpu:              89.6 elap:              15.0
 (Enter /gpfs/fs1/soft/bebop/software/custom-built/gaussian/16-c.02/g16/l701.exe)
 ... and contract with generalized density number  0.
 Compute integral second derivatives.
 R6Disp: Adding Grimme-D2 dispersion energy 2nd derivatives to the Hessian.
   1 Symmetry operations used in ECPInt.
 ECPInt:  NShTT=    2016 NPrTT=    7252 LenC2=    2002 LenP2D=    5850.
 LDataN:  DoStor=T MaxTD1= 6 Len=  172
 Leave Link  701 at Tue May 20 12:20:23 2025, MaxMem=  3758096384 cpu:               1.1 elap:               0.2
 (Enter /gpfs/fs1/soft/bebop/software/custom-built/gaussian/16-c.02/g16/l702.exe)
 L702 exits ... SP integral derivatives will be done elsewhere.
 Leave Link  702 at Tue May 20 12:20:23 2025, MaxMem=  3758096384 cpu:               0.1 elap:               0.0
 (Enter /gpfs/fs1/soft/bebop/software/custom-built/gaussian/16-c.02/g16/l703.exe)
 Integral derivatives from FoFJK, PRISM(SPDF).
 Compute integral second derivatives, UseDBF=F ICtDFT=           0.
 Calling FoFJK, ICntrl=    100127 FMM=F ISym2X=0 I1Cent= 0 IOpClX= 1 NMat=1 NMatS=1 NMatT=0.
 FoFJK:  IHMeth= 1 ICntrl=  100127 DoSepK=T KAlg= 0 I1Cent=           0 FoldK=F
 IRaf=         1 NMat=       1 IRICut=       1 DoRegI=T DoRafI=F ISym2E= 0 IDoP0=0 IntGTp=1.
 FoFCou: FMM=F IPFlag=           0 FMFlag=      100000 FMFlg1=         800
         NFxFlg=           0 DoJE=F BraDBF=F KetDBF=F FulRan=T
         wScrn=  0.000000 ICntrl=    100527 IOpCl=  0 I1Cent=           0 NGrid=           0
         NMat0=    1 NMatS0=      1 NMatT0=    0 NMatD0=    1 NMtDS0=    0 NMtDT0=    0
 Symmetry not used in FoFCou.
