 Entering Gaussian System, Link 0=g16
 Input=run.inp
 Output=run.out
 Initial command:
 /apps/eb/gaussian/16-AVX2/g16/l1.exe "/scratch/gtemp/avcopan/Gau-2203154.inp" -scrdir="/scratch/gtemp/avcopan/"
 Entering Link 1 = /apps/eb/gaussian/16-AVX2/g16/l1.exe PID=   2203155.
  
 Copyright (c) 1988-2019, Gaussian, Inc.  All Rights Reserved.
  
 This is part of the Gaussian(R) 16 program.  It is based on
 the Gaussian(R) 09 system (copyright 2009, Gaussian, Inc.),
 the Gaussian(R) 03 system (copyright 2003, Gaussian, Inc.),
 the Gaussian(R) 98 system (copyright 1998, Gaussian, Inc.),
 the Gaussian(R) 94 system (copyright 1995, Gaussian, Inc.),
 the Gaussian 92(TM) system (copyright 1992, Gaussian, Inc.),
 the Gaussian 90(TM) system (copyright 1990, Gaussian, Inc.),
 the Gaussian 88(TM) system (copyright 1988, Gaussian, Inc.),
 the Gaussian 86(TM) system (copyright 1986, Carnegie Mellon
 University), and the Gaussian 82(TM) system (copyright 1983,
 Carnegie Mellon University). Gaussian is a federally registered
 trademark of Gaussian, Inc.
  
 This software contains proprietary and confidential information,
 including trade secrets, belonging to Gaussian, Inc.
  
 This software is provided under written license and may be
 used, copied, transmitted, or stored only in accord with that
 written license.
  
 The following legend is applicable only to US Government
 contracts under FAR:
  
                    RESTRICTED RIGHTS LEGEND
  
 Use, reproduction and disclosure by the US Government is
 subject to restrictions as set forth in subparagraphs (a)
 and (c) of the Commercial Computer Software - Restricted
 Rights clause in FAR 52.227-19.
  
 Gaussian, Inc.
 340 Quinnipiac St., Bldg. 40, Wallingford CT 06492
  
  
 ---------------------------------------------------------------
 Warning -- This program may not be used in any manner that
 competes with the business of Gaussian, Inc. or will provide
 assistance to any competitor of Gaussian, Inc.  The licensee
 of this program is prohibited from giving any competitor of
 Gaussian, Inc. access to this program.  By using this program,
 the user acknowledges that Gaussian, Inc. is engaged in the
 business of creating and licensing software in the field of
 computational chemistry and represents and warrants to the
 licensee that it is not a competitor of Gaussian, Inc. and that
 it will not use this program in any manner prohibited above.
 ---------------------------------------------------------------
  

 Cite this work as:
 Gaussian 16, Revision C.01,
 M. J. Frisch, G. W. Trucks, H. B. Schlegel, G. E. Scuseria, 
 M. A. Robb, J. R. Cheeseman, G. Scalmani, V. Barone, 
 G. A. Petersson, H. Nakatsuji, X. Li, M. Caricato, A. V. Marenich, 
 J. Bloino, B. G. Janesko, R. Gomperts, B. Mennucci, H. P. Hratchian, 
 J. V. Ortiz, A. F. Izmaylov, J. L. Sonnenberg, D. Williams-Young, 
 F. Ding, F. Lipparini, F. Egidi, J. Goings, B. Peng, A. Petrone, 
 T. Henderson, D. Ranasinghe, V. G. Zakrzewski, J. Gao, N. Rega, 
 G. Zheng, W. Liang, M. Hada, M. Ehara, K. Toyota, R. Fukuda, 
 J. Hasegawa, M. Ishida, T. Nakajima, Y. Honda, O. Kitao, H. Nakai, 
 T. Vreven, K. Throssell, J. A. Montgomery, Jr., J. E. Peralta, 
 F. Ogliaro, M. J. Bearpark, J. J. Heyd, E. N. Brothers, K. N. Kudin, 
 V. N. Staroverov, T. A. Keith, R. Kobayashi, J. Normand, 
 K. Raghavachari, A. P. Rendell, J. C. Burant, S. S. Iyengar, 
 J. Tomasi, M. Cossi, J. M. Millam, M. Klene, C. Adamo, R. Cammi, 
 J. W. Ochterski, R. L. Martin, K. Morokuma, O. Farkas, 
 J. B. Foresman, and D. J. Fox, Gaussian, Inc., Wallingford CT, 2019.
 
 ******************************************
 Gaussian 16:  ES64L-G16RevC.01  3-Jul-2019
                19-Sep-2025 
 ******************************************
 %mem=2GB
 %NProcShared=8
 Will use up to    8 processors via shared memory.
 -------------------------------------------------------
 #P wb97xd/def2svp # SCF=(xqc) # POpt=() # int=ultrafine
 -------------------------------------------------------
 1/10=7,26=4,38=1/1,3;
 2/12=2,17=6,18=5,29=3,40=1/2;
 3/5=43,7=101,11=2,25=1,30=1,71=1,74=-58,75=-5/1,2,3;
 4//1;
 5/5=2,8=3,13=1,38=5/2,8;
 6/7=2,8=2,9=2,10=2,28=1/1;
 7/29=1/1,2,3,16;
 1/10=7,26=4/3(2);
 2/29=3/2;
 99//99;
 2/29=3/2;
 3/5=43,7=101,11=2,25=1,30=1,71=1,74=-58,75=-5/1,2,3;
 4/5=5,16=3,69=1/1;
 5/5=2,8=3,13=1,38=5/2,8;
 7//1,2,3,16;
 1/26=4/3(-5);
 2/29=3/2;
 6/7=2,8=2,9=2,10=2,19=2,28=1/1;
 99/9=1/99;
 Leave Link    1 at Fri Sep 19 15:17:30 2025, MaxMem=   268435456 cpu:               0.3 elap:               0.1
 (Enter /apps/eb/gaussian/16-AVX2/g16/l101.exe)
 --------
 comment:
 --------
 Symbolic Z-matrix:
 Charge =  0 Multiplicity = 2
 C
 C                    1    R1
 O                    1    R2       2    A2
 C                    2    R3       1    A3       3    D3       0
 H                    2    R4       1    A4       4    D4       0
 H                    2    R5       1    A5       4    D5       0
 C                    4    R6       2    A6       1    D6       0
 H                    4    R7       2    A7       7    D7       0
 C                    7    R8       4    A8       2    D8       0
 H                    7    R9       4    A9       9    D9       0
 H                    9    R10      7    A10      4    D10      0
 H                    9    R11      7    A11      11   D11      0
 O                    3    R12      1    A12      9    D12      0
 H                    13   R13      3    A13      1    D13      0
       Variables:
  R1                    1.4737                   
  R2                    1.3625                   
  R3                    1.4116                   
  R4                    1.09                     
  R6                    1.3777                   
  R7                    1.0904                   
  R8                    1.5064                   
  R9                    1.09                     
  R10                   1.1086                   
  R11                   1.1033                   
  R12                   1.4383                   
  R13                   0.9672                   
  A2                  122.1533                   
  A3                  108.3292                   
  A4                  123.6642                   
  A5                   47.2208                   
  A6                  110.334                    
  A7                  124.2951                   
  A8                  110.8056                   
  A9                  125.4876                   
  A10                 112.0323                   
  A11                 113.8801                   
  A12                 108.7031                   
  A13                 101.2396                   
  D3                  159.4722                   
  D4                  176.3571                   
  D5                   99.0436                   
  D6                   -4.5521                   
  D7                  176.8635                   
  D8                  358.1143                   
  D9                  180.4633                   
  D10                 251.381                    
  D11                 239.1156                   
  D12                  74.9502                   
  D13                 100.7168                   
       Constants:
  R5                    1.3424                   
 
 ITRead=  0  0  0  0  0  0  0  0  0  0  0  0  0  0
 MicOpt= -1 -1 -1 -1 -1 -1 -1 -1 -1 -1 -1 -1 -1 -1
 NAtoms=     14 NQM=       14 NQMF=       0 NMMI=      0 NMMIF=      0
                NMic=       0 NMicF=      0.
                    Isotopes and Nuclear Properties:
 (Nuclear quadrupole moments (NQMom) in fm**2, nuclear magnetic moments (NMagM)
  in nuclear magnetons)

  Atom         1           2           3           4           5           6           7           8           9          10
 IAtWgt=          12          12          16          12           1           1          12           1          12           1
 AtmWgt=  12.0000000  12.0000000  15.9949146  12.0000000   1.0078250   1.0078250  12.0000000   1.0078250  12.0000000   1.0078250
 NucSpn=           0           0           0           0           1           1           0           1           0           1
 AtZEff=  -0.0000000  -0.0000000  -0.0000000  -0.0000000  -0.0000000  -0.0000000  -0.0000000  -0.0000000  -0.0000000  -0.0000000
 NQMom=    0.0000000   0.0000000   0.0000000   0.0000000   0.0000000   0.0000000   0.0000000   0.0000000   0.0000000   0.0000000
 NMagM=    0.0000000   0.0000000   0.0000000   0.0000000   2.7928460   2.7928460   0.0000000   2.7928460   0.0000000   2.7928460
 AtZNuc=   6.0000000   6.0000000   8.0000000   6.0000000   1.0000000   1.0000000   6.0000000   1.0000000   6.0000000   1.0000000

  Atom        11          12          13          14
 IAtWgt=           1           1          16           1
 AtmWgt=   1.0078250   1.0078250  15.9949146   1.0078250
 NucSpn=           1           1           0           1
 AtZEff=  -0.0000000  -0.0000000  -0.0000000  -0.0000000
 NQMom=    0.0000000   0.0000000   0.0000000   0.0000000
 NMagM=    2.7928460   2.7928460   0.0000000   2.7928460
 AtZNuc=   1.0000000   1.0000000   8.0000000   1.0000000
 Leave Link  101 at Fri Sep 19 15:17:30 2025, MaxMem=   268435456 cpu:               1.0 elap:               0.3
 (Enter /apps/eb/gaussian/16-AVX2/g16/l103.exe)

 GradGradGradGradGradGradGradGradGradGradGradGradGradGradGradGradGradGrad
 Berny optimization.
 Initialization pass.
                       ----------------------------
                       !    Initial Parameters    !
                       ! (Angstroms and Degrees)  !
 ----------------------                            ----------------------
 !      Name          Value   Derivative information (Atomic Units)     !
 ------------------------------------------------------------------------
 !       R1          1.4737   estimate D2E/DX2                          !
 !       R2          1.3625   estimate D2E/DX2                          !
 !       R3          1.4116   estimate D2E/DX2                          !
 !       R4          1.09     estimate D2E/DX2                          !
 !       R6          1.3777   estimate D2E/DX2                          !
 !       R7          1.0904   estimate D2E/DX2                          !
 !       R8          1.5064   estimate D2E/DX2                          !
 !       R9          1.09     estimate D2E/DX2                          !
 !       R10         1.1086   estimate D2E/DX2                          !
 !       R11         1.1033   estimate D2E/DX2                          !
 !       R12         1.4383   estimate D2E/DX2                          !
 !       R13         0.9672   estimate D2E/DX2                          !
 !       A2        122.1533   estimate D2E/DX2                          !
 !       A3        108.3292   estimate D2E/DX2                          !
 !       A4        123.6642   estimate D2E/DX2                          !
 !       A5         47.2208   estimate D2E/DX2                          !
 !       A6        110.334    estimate D2E/DX2                          !
 !       A7        124.2951   estimate D2E/DX2                          !
 !       A8        110.8056   estimate D2E/DX2                          !
 !       A9        125.4876   estimate D2E/DX2                          !
 !       A10       112.0323   estimate D2E/DX2                          !
 !       A11       113.8801   estimate D2E/DX2                          !
 !       A12       108.7031   estimate D2E/DX2                          !
 !       A13       101.2396   estimate D2E/DX2                          !
 !       D3        159.4722   estimate D2E/DX2                          !
 !       D4        176.3571   estimate D2E/DX2                          !
 !       D5         99.0436   estimate D2E/DX2                          !
 !       D6         -4.5521   estimate D2E/DX2                          !
 !       D7        176.8635   estimate D2E/DX2                          !
 !       D8        358.1143   estimate D2E/DX2                          !
 !       D9        180.4633   estimate D2E/DX2                          !
 !       D10       251.381    estimate D2E/DX2                          !
 !       D11       239.1156   estimate D2E/DX2                          !
 !       D12        74.9502   estimate D2E/DX2                          !
 !       D13       100.7168   estimate D2E/DX2                          !
 !       R5          1.3424   Frozen                                    !
 ------------------------------------------------------------------------
 Trust Radius=3.00D-01 FncErr=1.00D-07 GrdErr=1.00D-06 EigMax=2.50D+02 EigMin=1.00D-04
 Number of steps in this run=     46 maximum allowed number of steps=    100.
 GradGradGradGradGradGradGradGradGradGradGradGradGradGradGradGradGradGrad

 Leave Link  103 at Fri Sep 19 15:17:30 2025, MaxMem=   268435456 cpu:               0.3 elap:               0.1
 (Enter /apps/eb/gaussian/16-AVX2/g16/l202.exe)
 ---------------------------------------------------------------------------------------------------
                            Z-MATRIX (ANGSTROMS AND DEGREES)
   CD    Cent   Atom    N1       Length/X        N2       Alpha/Y        N3        Beta/Z          J
 ---------------------------------------------------------------------------------------------------
      1      1  C 
      2      2  C        1   1.473700(     1)
      3      3  O        1   1.362500(     2)      2  122.153(    14)
      4      4  C        2   1.411600(     3)      1  108.329(    15)      3  159.472(    26)      0
      5      5  H        2   1.090000(     4)      1  123.664(    16)      4  176.357(    27)      0
      6      6  H        2   1.342400(     5)      1   47.221(    17)      4   99.044(    28)      0
      7      7  C        4   1.377700(     6)      2  110.334(    18)      1   -4.552(    29)      0
      8      8  H        4   1.090400(     7)      2  124.295(    19)      7  176.863(    30)      0
      9      9  C        7   1.506400(     8)      4  110.806(    20)      2  358.114(    31)      0
     10     10  H        7   1.090000(     9)      4  125.488(    21)      9  180.463(    32)      0
     11     11  H        9   1.108600(    10)      7  112.032(    22)      4  251.381(    33)      0
     12     12  H        9   1.103300(    11)      7  113.880(    23)     11  239.116(    34)      0
     13     13  O        3   1.438300(    12)      1  108.703(    24)      9   74.950(    35)      0
     14     14  H       13   0.967200(    13)      3  101.240(    25)      1  100.717(    36)      0
 ---------------------------------------------------------------------------------------------------
                         Z-Matrix orientation:                         
 ---------------------------------------------------------------------
 Center     Atomic      Atomic             Coordinates (Angstroms)
 Number     Number       Type             X           Y           Z
 ---------------------------------------------------------------------
      1          6           0        0.000000    0.000000    0.000000
      2          6           0        0.000000    0.000000    1.473700
      3          8           0        1.153530    0.000000   -0.725104
      4          6           0       -1.254897    0.469881    1.917615
      5          1           0        0.827672   -0.371462    2.077914
      6          1           0       -0.196169   -0.965564    0.561976
      7          6           0       -2.023797    0.867266    0.845731
      8          1           0       -1.580430    0.463080    2.958265
      9          6           0       -1.261910    0.715275   -0.444876
     10          1           0       -3.042836    1.249537    0.905136
     11          1           0       -0.971288    1.695216   -0.874120
     12          1           0       -1.820304    0.182123   -1.233049
     13          8           0        1.783142    1.286108   -0.590121
     14          1           0        2.465493    1.093837    0.067834
 ---------------------------------------------------------------------
                    Distance matrix (angstroms):
                    1          2          3          4          5
     1  C    0.000000
     2  C    1.473700   0.000000
     3  O    1.362500   2.483016   0.000000
     4  C    2.339402   1.411600   3.606282   0.000000
     5  H    2.267322   1.090000   2.846239   2.251810   0.000000
     6  H    1.134290   1.342400   2.100137   2.240349   1.923350
     7  C    2.358637   2.289596   3.648983   1.377700   3.344189
     8  H    3.385785   2.217236   4.610444   1.090400   2.696375
     9  C    1.517218   2.405197   2.534659   2.375212   3.451351
    10  H    3.411666   3.338182   4.672099   2.197659   4.357050
    11  H    2.140384   3.054409   2.722281   3.061970   4.027644
    12  H    2.206147   3.266981   3.022393   3.213903   4.275594
    13  O    2.276382   3.015465   1.438300   4.023015   3.283119
    14  H    2.698099   3.041643   1.883209   4.201465   2.978251
                    6          7          8          9         10
     6  H    0.000000
     7  C    2.603845   0.000000
     8  H    3.114387   2.196074   0.000000
     9  C    2.230421   1.506400   3.427307   0.000000
    10  H    3.623251   1.090000   2.640547   2.297752   0.000000
    11  H    3.121367   2.179716   4.071411   1.108600   2.766892
    12  H    2.679013   2.198217   4.207564   1.103300   2.684361
    13  O    3.211702   4.090219   4.958028   3.101498   5.052445
    14  H    3.401434   4.561818   5.012180   3.781496   5.573778
                   11         12         13         14
    11  H    0.000000
    12  H    1.771753   0.000000
    13  O    2.799091   3.823214   0.000000
    14  H    3.613917   4.570730   0.967200   0.000000
 Stoichiometry    C5H7O2(2)
 Framework group  C1[X(C5H7O2)]
 Deg. of freedom    36
 Full point group                 C1      NOp   1
 Largest Abelian subgroup         C1      NOp   1
 Largest concise Abelian subgroup C1      NOp   1
                         Standard orientation:                         
 ---------------------------------------------------------------------
 Center     Atomic      Atomic             Coordinates (Angstroms)
 Number     Number       Type             X           Y           Z
 ---------------------------------------------------------------------
      1          6           0        0.278046   -0.057201    0.530615
      2          6           0       -0.458624    1.168297    0.173874
      3          8           0        1.639227   -0.098206    0.574327
      4          6           0       -1.756245    0.800766   -0.242919
      5          1           0       -0.052573    2.173045    0.290938
      6          1           0       -0.194833    0.572077    1.347320
      7          6           0       -1.877039   -0.571168   -0.278466
      8          1           0       -2.558443    1.509370   -0.451080
      9          6           0       -0.575739   -1.232697    0.093335
     10          1           0       -2.780254   -1.120177   -0.544720
     11          1           0       -0.087104   -1.709417   -0.780145
     12          1           0       -0.677415   -2.017968    0.861633
     13          8           0        2.146327   -0.022235   -0.769468
     14          1           0        2.403800    0.908615   -0.821458
 ---------------------------------------------------------------------
 Rotational constants (GHZ):           5.7691468           2.0321731           1.7614646
 Leave Link  202 at Fri Sep 19 15:17:30 2025, MaxMem=   268435456 cpu:               0.4 elap:               0.1
 (Enter /apps/eb/gaussian/16-AVX2/g16/l301.exe)
 Standard basis: def2SVP (5D, 7F)
 Ernie: Thresh=  0.10000D-02 Tol=  0.10000D-05 Strict=F.
 There are   140 symmetry adapted cartesian basis functions of A   symmetry.
 There are   133 symmetry adapted basis functions of A   symmetry.
   133 basis functions,   224 primitive gaussians,   140 cartesian basis functions
    27 alpha electrons       26 beta electrons
       nuclear repulsion energy       300.1774348529 Hartrees.
 IExCor= 4639 DFT=T Ex+Corr=wB97XD ExCW=0 ScaHFX=  1.000000
 ScaDFX=  1.000000  1.000000  1.000000  1.000000 ScalE2=  1.000000  1.000000
 IRadAn=      5 IRanWt=     -1 IRanGd=            0 ICorTp=0 IEmpDi=121
 HFx  wShort=  0.000000 wLong=  0.200000 cFull=  0.222036 cShort=  0.000000 cLong=  0.777964
 DFx  wShort=  0.000000 wLong=  0.200000 cFull=  0.000000 cShort=  0.000000 cLong=  1.000000
 NAtoms=   14 NActive=   14 NUniq=   14 SFac= 1.00D+00 NAtFMM=   60 NAOKFM=F Big=F
 Integral buffers will be    131072 words long.
 Raffenetti 2 integral format.
 Two-electron integral symmetry is turned on.
 R6Disp:  Grimme-D2 Dispersion energy=       -0.0060454500 Hartrees.
 Nuclear repulsion after empirical dispersion term =      300.1713894029 Hartrees.
 Leave Link  301 at Fri Sep 19 15:17:30 2025, MaxMem=   268435456 cpu:               0.5 elap:               0.2
 (Enter /apps/eb/gaussian/16-AVX2/g16/l302.exe)
 NPDir=0 NMtPBC=     1 NCelOv=     1 NCel=       1 NClECP=     1 NCelD=      1
         NCelK=      1 NCelE2=     1 NClLst=     1 CellRange=     0.0.
 One-electron integrals computed using PRISM.
 One-electron integral symmetry used in STVInt
   1 Symmetry operations used in ECPInt.
 ECPInt:  NShTT=    2016 NPrTT=    7252 LenC2=    2009 LenP2D=    6007.
 LDataN:  DoStor=T MaxTD1= 4 Len=   56
 NBasis=   133 RedAO= T EigKep=  9.03D-04  NBF=   133
 NBsUse=   133 1.00D-06 EigRej= -1.00D+00 NBFU=   133
 Precomputing XC quadrature grid using
 IXCGrd= 4 IRadAn=           5 IRanWt=          -1 IRanGd=           0 AccXCQ= 0.00D+00.
 Generated NRdTot=       0 NPtTot=           0 NUsed=           0 NTot=          32
 NSgBfM=   140   140   140   140   140 MxSgAt=    14 MxSgA2=    14.
 Leave Link  302 at Fri Sep 19 15:17:32 2025, MaxMem=   268435456 cpu:               7.7 elap:               2.0
 (Enter /apps/eb/gaussian/16-AVX2/g16/l303.exe)
 DipDrv:  MaxL=1.
 Leave Link  303 at Fri Sep 19 15:17:33 2025, MaxMem=   268435456 cpu:               1.7 elap:               0.5
 (Enter /apps/eb/gaussian/16-AVX2/g16/l401.exe)
 ExpMin= 1.22D-01 ExpMax= 2.27D+03 ExpMxC= 3.41D+02 IAcc=3 IRadAn=         5 AccDes= 0.00D+00
 Harris functional with IExCor= 4639 and IRadAn=       5 diagonalized for initial guess.
 HarFok:  IExCor= 4639 AccDes= 0.00D+00 IRadAn=         5 IDoV= 1 UseB2=F ITyADJ=14
 ICtDFT=  3500011 ScaDFX=  1.000000  1.000000  1.000000  1.000000
 FoFCou: FMM=F IPFlag=           0 FMFlag=      100000 FMFlg1=           0
         NFxFlg=           0 DoJE=T BraDBF=F KetDBF=T FulRan=T
         wScrn=  0.000000 ICntrl=       500 IOpCl=  0 I1Cent=   200000004 NGrid=           0
         NMat0=    1 NMatS0=      1 NMatT0=    0 NMatD0=    1 NMtDS0=    0 NMtDT0=    0
 Petite list used in FoFCou.
 Harris En= -330.304359254570    
 JPrj=0 DoOrth=F DoCkMO=F.
 Initial guess <Sx>= 0.0000 <Sy>= 0.0000 <Sz>= 0.5000 <S**2>= 0.7500 S= 0.5000
 Leave Link  401 at Fri Sep 19 15:17:35 2025, MaxMem=   268435456 cpu:               7.3 elap:               1.9
 (Enter /apps/eb/gaussian/16-AVX2/g16/l502.exe)
 Integral symmetry usage will be decided dynamically.
 UHF open shell SCF:
 Using DIIS extrapolation, IDIIS=  1040.
 NGot=   268435456 LenX=   268393178 LenY=   268373137
 Requested convergence on RMS density matrix=1.00D-08 within  32 cycles.
 Requested convergence on MAX density matrix=1.00D-06.
 Requested convergence on             energy=1.00D-06.
 No special actions if energy rises.
 Fock matrices will be formed incrementally for  20 cycles.
 Integral accuracy reduced to 1.0D-05 until final iterations.

 Cycle   1  Pass 0  IDiag  1:
 FoFJK:  IHMeth= 1 ICntrl=       0 DoSepK=T KAlg= 0 I1Cent=           0 FoldK=F
 IRaf=         1 NMat=       1 IRICut=       1 DoRegI=T DoRafI=F ISym2E= 0 IDoP0=0 IntGTp=1.
 FoFCou: FMM=F IPFlag=           0 FMFlag=      100000 FMFlg1=           0
         NFxFlg=           0 DoJE=T BraDBF=F KetDBF=F FulRan=T
         wScrn=  0.000000 ICntrl=       500 IOpCl=  0 I1Cent=           0 NGrid=           0
         NMat0=    1 NMatS0=      1 NMatT0=    0 NMatD0=    1 NMtDS0=    0 NMtDT0=    0
 Symmetry not used in FoFCou.
 E= -344.470873607300    
 DIIS: error= 3.02D-02 at cycle   1 NSaved=   1.
 NSaved= 1 IEnMin= 1 EnMin= -344.470873607300     IErMin= 1 ErrMin= 3.02D-02
 ErrMax= 3.02D-02  0.00D+00 EMaxC= 1.00D-01 BMatC= 9.07D-01 BMatP= 9.07D-01
 IDIUse=3 WtCom= 6.98D-01 WtEn= 3.02D-01
 Coeff-Com:  0.100D+01
 Coeff-En:   0.100D+01
 Coeff:      0.100D+01
 Gap=     0.320 Goal=   None    Shift=    0.000
 Gap=     0.523 Goal=   None    Shift=    0.000
 GapD=    0.320 DampG=1.000 DampE=0.500 DampFc=0.5000 IDamp=-1.
 Damping current iteration by 5.00D-01
 RMSDP=6.76D-03 MaxDP=1.71D-01              OVMax= 1.98D-01

 Cycle   2  Pass 0  IDiag  1:
 RMSU=  3.30D-03    CP:  9.75D-01
 E= -344.527450289780     Delta-E=       -0.056576682480 Rises=F Damp=T
 DIIS: error= 1.32D-02 at cycle   2 NSaved=   2.
 NSaved= 2 IEnMin= 2 EnMin= -344.527450289780     IErMin= 2 ErrMin= 1.32D-02
 ErrMax= 1.32D-02  0.00D+00 EMaxC= 1.00D-01 BMatC= 1.16D-01 BMatP= 9.07D-01
 IDIUse=3 WtCom= 8.68D-01 WtEn= 1.32D-01
 Coeff-Com: -0.167D+00 0.117D+01
 Coeff-En:   0.000D+00 0.100D+01
 Coeff:     -0.145D+00 0.114D+01
 Gap=     0.363 Goal=   None    Shift=    0.000
 Gap=     0.458 Goal=   None    Shift=    0.000
 RMSDP=1.97D-03 MaxDP=5.58D-02 DE=-5.66D-02 OVMax= 1.33D-01

 Cycle   3  Pass 0  IDiag  1:
 RMSU=  1.85D-03    CP:  9.68D-01  1.19D+00
 E= -344.587071358933     Delta-E=       -0.059621069154 Rises=F Damp=F
 DIIS: error= 4.11D-03 at cycle   3 NSaved=   3.
 NSaved= 3 IEnMin= 3 EnMin= -344.587071358933     IErMin= 3 ErrMin= 4.11D-03
 ErrMax= 4.11D-03  0.00D+00 EMaxC= 1.00D-01 BMatC= 2.62D-02 BMatP= 1.16D-01
 IDIUse=3 WtCom= 9.59D-01 WtEn= 4.11D-02
 Coeff-Com: -0.168D+00 0.369D+00 0.799D+00
 Coeff-En:   0.000D+00 0.000D+00 0.100D+01
 Coeff:     -0.161D+00 0.354D+00 0.807D+00
 Gap=     0.310 Goal=   None    Shift=    0.000
 Gap=     0.367 Goal=   None    Shift=    0.000
 RMSDP=8.77D-04 MaxDP=2.28D-02 DE=-5.96D-02 OVMax= 2.03D-02

 Cycle   4  Pass 0  IDiag  1:
 RMSU=  5.08D-04    CP:  9.60D-01  1.40D+00  9.73D-01
 E= -344.592428493016     Delta-E=       -0.005357134082 Rises=F Damp=F
 DIIS: error= 1.89D-03 at cycle   4 NSaved=   4.
 NSaved= 4 IEnMin= 4 EnMin= -344.592428493016     IErMin= 4 ErrMin= 1.89D-03
 ErrMax= 1.89D-03  0.00D+00 EMaxC= 1.00D-01 BMatC= 3.62D-03 BMatP= 2.62D-02
 IDIUse=3 WtCom= 9.81D-01 WtEn= 1.89D-02
 Coeff-Com: -0.788D-01 0.150D+00 0.419D+00 0.510D+00
 Coeff-En:   0.000D+00 0.000D+00 0.000D+00 0.100D+01
 Coeff:     -0.773D-01 0.147D+00 0.411D+00 0.519D+00
 Gap=     0.310 Goal=   None    Shift=    0.000
 Gap=     0.342 Goal=   None    Shift=    0.000
 RMSDP=1.98D-04 MaxDP=6.33D-03 DE=-5.36D-03 OVMax= 6.53D-03

 Cycle   5  Pass 0  IDiag  1:
 RMSU=  1.77D-04    CP:  9.60D-01  1.40D+00  1.02D+00  9.42D-01
 E= -344.593252052050     Delta-E=       -0.000823559034 Rises=F Damp=F
 DIIS: error= 7.15D-04 at cycle   5 NSaved=   5.
 NSaved= 5 IEnMin= 5 EnMin= -344.593252052050     IErMin= 5 ErrMin= 7.15D-04
 ErrMax= 7.15D-04  0.00D+00 EMaxC= 1.00D-01 BMatC= 2.95D-04 BMatP= 3.62D-03
 IDIUse=3 WtCom= 9.93D-01 WtEn= 7.15D-03
 Coeff-Com:  0.171D-01-0.408D-01-0.801D-01 0.820D-01 0.102D+01
 Coeff-En:   0.000D+00 0.000D+00 0.000D+00 0.000D+00 0.100D+01
 Coeff:      0.170D-01-0.406D-01-0.795D-01 0.814D-01 0.102D+01
 Gap=     0.314 Goal=   None    Shift=    0.000
 Gap=     0.345 Goal=   None    Shift=    0.000
 RMSDP=1.91D-04 MaxDP=5.06D-03 DE=-8.24D-04 OVMax= 1.07D-02

 Cycle   6  Pass 0  IDiag  1:
 RMSU=  1.10D-04    CP:  9.60D-01  1.41D+00  1.07D+00  1.14D+00  1.40D+00
 E= -344.593547613048     Delta-E=       -0.000295560998 Rises=F Damp=F
 DIIS: error= 4.11D-04 at cycle   6 NSaved=   6.
 NSaved= 6 IEnMin= 6 EnMin= -344.593547613048     IErMin= 6 ErrMin= 4.11D-04
 ErrMax= 4.11D-04  0.00D+00 EMaxC= 1.00D-01 BMatC= 8.70D-05 BMatP= 2.95D-04
 IDIUse=3 WtCom= 9.96D-01 WtEn= 4.11D-03
 Coeff-Com:  0.296D-01-0.574D-01-0.156D+00-0.162D+00 0.182D+00 0.116D+01
 Coeff-En:   0.000D+00 0.000D+00 0.000D+00 0.000D+00 0.000D+00 0.100D+01
 Coeff:      0.295D-01-0.571D-01-0.155D+00-0.161D+00 0.182D+00 0.116D+01
 Gap=     0.316 Goal=   None    Shift=    0.000
 Gap=     0.348 Goal=   None    Shift=    0.000
 RMSDP=1.50D-04 MaxDP=4.90D-03 DE=-2.96D-04 OVMax= 1.01D-02

 Cycle   7  Pass 0  IDiag  1:
 RMSU=  5.68D-05    CP:  9.59D-01  1.42D+00  1.09D+00  1.30D+00  1.86D+00
                    CP:  1.48D+00
 E= -344.593667312544     Delta-E=       -0.000119699496 Rises=F Damp=F
 DIIS: error= 1.34D-04 at cycle   7 NSaved=   7.
 NSaved= 7 IEnMin= 7 EnMin= -344.593667312544     IErMin= 7 ErrMin= 1.34D-04
 ErrMax= 1.34D-04  0.00D+00 EMaxC= 1.00D-01 BMatC= 1.62D-05 BMatP= 8.70D-05
 IDIUse=3 WtCom= 9.99D-01 WtEn= 1.34D-03
 Coeff-Com:  0.457D-02-0.758D-02-0.250D-01-0.502D-01-0.138D+00 0.344D+00
 Coeff-Com:  0.872D+00
 Coeff-En:   0.000D+00 0.000D+00 0.000D+00 0.000D+00 0.000D+00 0.000D+00
 Coeff-En:   0.100D+01
 Coeff:      0.457D-02-0.757D-02-0.250D-01-0.501D-01-0.137D+00 0.344D+00
 Coeff:      0.872D+00
 Gap=     0.316 Goal=   None    Shift=    0.000
 Gap=     0.348 Goal=   None    Shift=    0.000
 RMSDP=4.31D-05 MaxDP=1.55D-03 DE=-1.20D-04 OVMax= 3.34D-03

 Cycle   8  Pass 0  IDiag  1:
 RMSU=  2.20D-05    CP:  9.59D-01  1.41D+00  1.10D+00  1.32D+00  1.97D+00
                    CP:  1.72D+00  1.21D+00
 E= -344.593682136162     Delta-E=       -0.000014823618 Rises=F Damp=F
 DIIS: error= 5.79D-05 at cycle   8 NSaved=   8.
 NSaved= 8 IEnMin= 8 EnMin= -344.593682136162     IErMin= 8 ErrMin= 5.79D-05
 ErrMax= 5.79D-05  0.00D+00 EMaxC= 1.00D-01 BMatC= 2.77D-06 BMatP= 1.62D-05
 IDIUse=1 WtCom= 1.00D+00 WtEn= 0.00D+00
 Coeff-Com: -0.496D-02 0.981D-02 0.264D-01 0.247D-01-0.621D-01-0.179D+00
 Coeff-Com:  0.106D+00 0.108D+01
 Coeff:     -0.496D-02 0.981D-02 0.264D-01 0.247D-01-0.621D-01-0.179D+00
 Coeff:      0.106D+00 0.108D+01
 Gap=     0.317 Goal=   None    Shift=    0.000
 Gap=     0.349 Goal=   None    Shift=    0.000
 RMSDP=2.44D-05 MaxDP=1.02D-03 DE=-1.48D-05 OVMax= 1.93D-03

 Cycle   9  Pass 0  IDiag  1:
 RMSU=  1.13D-05    CP:  9.59D-01  1.41D+00  1.09D+00  1.32D+00  1.99D+00
                    CP:  1.80D+00  1.48D+00  1.40D+00
 E= -344.593685789037     Delta-E=       -0.000003652875 Rises=F Damp=F
 DIIS: error= 2.88D-05 at cycle   9 NSaved=   9.
 NSaved= 9 IEnMin= 9 EnMin= -344.593685789037     IErMin= 9 ErrMin= 2.88D-05
 ErrMax= 2.88D-05  0.00D+00 EMaxC= 1.00D-01 BMatC= 6.80D-07 BMatP= 2.77D-06
 IDIUse=1 WtCom= 1.00D+00 WtEn= 0.00D+00
 Coeff-Com: -0.177D-02 0.334D-02 0.971D-02 0.133D-01 0.529D-02-0.937D-01
 Coeff-Com: -0.112D+00 0.322D+00 0.854D+00
 Coeff:     -0.177D-02 0.334D-02 0.971D-02 0.133D-01 0.529D-02-0.937D-01
 Coeff:     -0.112D+00 0.322D+00 0.854D+00
 Gap=     0.317 Goal=   None    Shift=    0.000
 Gap=     0.349 Goal=   None    Shift=    0.000
 RMSDP=9.45D-06 MaxDP=2.62D-04 DE=-3.65D-06 OVMax= 7.43D-04

 Initial convergence to 1.0D-05 achieved.  Increase integral accuracy.
 Cycle  10  Pass 1  IDiag  1:
 E= -344.593684048145     Delta-E=        0.000001740892 Rises=F Damp=F
 DIIS: error= 1.81D-05 at cycle   1 NSaved=   1.
 NSaved= 1 IEnMin= 1 EnMin= -344.593684048145     IErMin= 1 ErrMin= 1.81D-05
 ErrMax= 1.81D-05  0.00D+00 EMaxC= 1.00D-01 BMatC= 4.72D-07 BMatP= 4.72D-07
 IDIUse=1 WtCom= 1.00D+00 WtEn= 0.00D+00
 Coeff-Com:  0.100D+01
 Coeff:      0.100D+01
 Gap=     0.317 Goal=   None    Shift=    0.000
 Gap=     0.349 Goal=   None    Shift=    0.000
 RMSDP=9.45D-06 MaxDP=2.62D-04 DE= 1.74D-06 OVMax= 3.98D-04

 Cycle  11  Pass 1  IDiag  1:
 RMSU=  6.86D-06    CP:  1.00D+00
 E= -344.593684336275     Delta-E=       -0.000000288131 Rises=F Damp=F
 DIIS: error= 1.27D-05 at cycle   2 NSaved=   2.
 NSaved= 2 IEnMin= 2 EnMin= -344.593684336275     IErMin= 2 ErrMin= 1.27D-05
 ErrMax= 1.27D-05  0.00D+00 EMaxC= 1.00D-01 BMatC= 9.33D-08 BMatP= 4.72D-07
 IDIUse=1 WtCom= 1.00D+00 WtEn= 0.00D+00
 Coeff-Com:  0.121D-01 0.988D+00
 Coeff:      0.121D-01 0.988D+00
 Gap=     0.317 Goal=   None    Shift=    0.000
 Gap=     0.349 Goal=   None    Shift=    0.000
 RMSDP=3.35D-06 MaxDP=1.01D-04 DE=-2.88D-07 OVMax= 2.77D-04

 Cycle  12  Pass 1  IDiag  1:
 RMSU=  2.26D-06    CP:  1.00D+00  1.36D+00
 E= -344.593684443418     Delta-E=       -0.000000107143 Rises=F Damp=F
 DIIS: error= 8.80D-06 at cycle   3 NSaved=   3.
 NSaved= 3 IEnMin= 3 EnMin= -344.593684443418     IErMin= 3 ErrMin= 8.80D-06
 ErrMax= 8.80D-06  0.00D+00 EMaxC= 1.00D-01 BMatC= 5.42D-08 BMatP= 9.33D-08
 IDIUse=1 WtCom= 1.00D+00 WtEn= 0.00D+00
 Coeff-Com: -0.152D+00 0.367D+00 0.784D+00
 Coeff:     -0.152D+00 0.367D+00 0.784D+00
 Gap=     0.317 Goal=   None    Shift=    0.000
 Gap=     0.349 Goal=   None    Shift=    0.000
 RMSDP=2.65D-06 MaxDP=1.05D-04 DE=-1.07D-07 OVMax= 2.07D-04

 Cycle  13  Pass 1  IDiag  1:
 RMSU=  1.26D-06    CP:  1.00D+00  1.69D+00  1.29D+00
 E= -344.593684502435     Delta-E=       -0.000000059017 Rises=F Damp=F
 DIIS: error= 5.74D-06 at cycle   4 NSaved=   4.
 NSaved= 4 IEnMin= 4 EnMin= -344.593684502435     IErMin= 4 ErrMin= 5.74D-06
 ErrMax= 5.74D-06  0.00D+00 EMaxC= 1.00D-01 BMatC= 1.82D-08 BMatP= 5.42D-08
 IDIUse=1 WtCom= 1.00D+00 WtEn= 0.00D+00
 Coeff-Com:  0.693D-02-0.468D+00-0.645D-01 0.153D+01
 Coeff:      0.693D-02-0.468D+00-0.645D-01 0.153D+01
 Gap=     0.317 Goal=   None    Shift=    0.000
 Gap=     0.349 Goal=   None    Shift=    0.000
 RMSDP=3.62D-06 MaxDP=1.18D-04 DE=-5.90D-08 OVMax= 2.78D-04

 Cycle  14  Pass 1  IDiag  1:
 RMSU=  7.39D-07    CP:  1.00D+00  2.10D+00  2.05D+00  1.95D+00
 E= -344.593684549643     Delta-E=       -0.000000047208 Rises=F Damp=F
 DIIS: error= 2.76D-06 at cycle   5 NSaved=   5.
 NSaved= 5 IEnMin= 5 EnMin= -344.593684549643     IErMin= 5 ErrMin= 2.76D-06
 ErrMax= 2.76D-06  0.00D+00 EMaxC= 1.00D-01 BMatC= 8.28D-09 BMatP= 1.82D-08
 IDIUse=1 WtCom= 1.00D+00 WtEn= 0.00D+00
 Coeff-Com:  0.600D-01-0.423D+00-0.315D+00 0.936D+00 0.742D+00
 Coeff:      0.600D-01-0.423D+00-0.315D+00 0.936D+00 0.742D+00
 Gap=     0.317 Goal=   None    Shift=    0.000
 Gap=     0.349 Goal=   None    Shift=    0.000
 RMSDP=1.77D-06 MaxDP=5.90D-05 DE=-4.72D-08 OVMax= 1.36D-04

 Cycle  15  Pass 1  IDiag  1:
 RMSU=  3.45D-07    CP:  1.00D+00  2.29D+00  2.43D+00  2.52D+00  1.18D+00
 E= -344.593684559115     Delta-E=       -0.000000009472 Rises=F Damp=F
 DIIS: error= 8.50D-07 at cycle   6 NSaved=   6.
 NSaved= 6 IEnMin= 6 EnMin= -344.593684559115     IErMin= 6 ErrMin= 8.50D-07
 ErrMax= 8.50D-07  0.00D+00 EMaxC= 1.00D-01 BMatC= 6.07D-10 BMatP= 8.28D-09
 IDIUse=1 WtCom= 1.00D+00 WtEn= 0.00D+00
 Coeff-Com:  0.171D-01-0.622D-01-0.811D-01 0.654D-01 0.203D+00 0.858D+00
 Coeff:      0.171D-01-0.622D-01-0.811D-01 0.654D-01 0.203D+00 0.858D+00
 Gap=     0.317 Goal=   None    Shift=    0.000
 Gap=     0.349 Goal=   None    Shift=    0.000
 RMSDP=4.40D-07 MaxDP=1.61D-05 DE=-9.47D-09 OVMax= 3.61D-05

 Cycle  16  Pass 1  IDiag  1:
 RMSU=  1.53D-07    CP:  1.00D+00  2.33D+00  2.50D+00  2.68D+00  1.37D+00
                    CP:  1.38D+00
 E= -344.593684559847     Delta-E=       -0.000000000732 Rises=F Damp=F
 DIIS: error= 5.68D-07 at cycle   7 NSaved=   7.
 NSaved= 7 IEnMin= 7 EnMin= -344.593684559847     IErMin= 7 ErrMin= 5.68D-07
 ErrMax= 5.68D-07  0.00D+00 EMaxC= 1.00D-01 BMatC= 1.89D-10 BMatP= 6.07D-10
 IDIUse=1 WtCom= 1.00D+00 WtEn= 0.00D+00
 Coeff-Com: -0.937D-02 0.873D-01 0.532D-01-0.221D+00-0.122D+00 0.334D+00
 Coeff-Com:  0.878D+00
 Coeff:     -0.937D-02 0.873D-01 0.532D-01-0.221D+00-0.122D+00 0.334D+00
 Coeff:      0.878D+00
 Gap=     0.317 Goal=   None    Shift=    0.000
 Gap=     0.349 Goal=   None    Shift=    0.000
 RMSDP=2.26D-07 MaxDP=5.25D-06 DE=-7.32D-10 OVMax= 1.57D-05

 Cycle  17  Pass 1  IDiag  1:
 RMSU=  6.88D-08    CP:  1.00D+00  2.34D+00  2.53D+00  2.75D+00  1.53D+00
                    CP:  1.71D+00  1.18D+00
 E= -344.593684560027     Delta-E=       -0.000000000180 Rises=F Damp=F
 DIIS: error= 1.87D-07 at cycle   8 NSaved=   8.
 NSaved= 8 IEnMin= 8 EnMin= -344.593684560027     IErMin= 8 ErrMin= 1.87D-07
 ErrMax= 1.87D-07  0.00D+00 EMaxC= 1.00D-01 BMatC= 2.04D-11 BMatP= 1.89D-10
 IDIUse=1 WtCom= 1.00D+00 WtEn= 0.00D+00
 Coeff-Com: -0.369D-02 0.192D-01 0.187D-01-0.324D-01-0.474D-01-0.120D+00
 Coeff-Com:  0.524D-01 0.111D+01
 Coeff:     -0.369D-02 0.192D-01 0.187D-01-0.324D-01-0.474D-01-0.120D+00
 Coeff:      0.524D-01 0.111D+01
 Gap=     0.317 Goal=   None    Shift=    0.000
 Gap=     0.349 Goal=   None    Shift=    0.000
 RMSDP=1.07D-07 MaxDP=2.52D-06 DE=-1.80D-10 OVMax= 7.24D-06

 Cycle  18  Pass 1  IDiag  1:
 RMSU=  3.17D-08    CP:  1.00D+00  2.35D+00  2.54D+00  2.78D+00  1.60D+00
                    CP:  1.87D+00  1.42D+00  1.56D+00
 E= -344.593684560060     Delta-E=       -0.000000000033 Rises=F Damp=F
 DIIS: error= 8.28D-08 at cycle   9 NSaved=   9.
 NSaved= 9 IEnMin= 9 EnMin= -344.593684560060     IErMin= 9 ErrMin= 8.28D-08
 ErrMax= 8.28D-08  0.00D+00 EMaxC= 1.00D-01 BMatC= 4.98D-12 BMatP= 2.04D-11
 IDIUse=1 WtCom= 1.00D+00 WtEn= 0.00D+00
 Coeff-Com:  0.660D-03-0.907D-02-0.408D-02 0.266D-01 0.835D-02-0.776D-01
 Coeff-Com: -0.122D+00 0.284D+00 0.894D+00
 Coeff:      0.660D-03-0.907D-02-0.408D-02 0.266D-01 0.835D-02-0.776D-01
 Coeff:     -0.122D+00 0.284D+00 0.894D+00
 Gap=     0.317 Goal=   None    Shift=    0.000
 Gap=     0.349 Goal=   None    Shift=    0.000
 RMSDP=3.50D-08 MaxDP=7.63D-07 DE=-3.32D-11 OVMax= 2.18D-06

 Cycle  19  Pass 1  IDiag  1:
 RMSU=  1.36D-08    CP:  1.00D+00  2.35D+00  2.54D+00  2.78D+00  1.62D+00
                    CP:  1.92D+00  1.51D+00  1.84D+00  1.13D+00
 E= -344.593684560064     Delta-E=       -0.000000000004 Rises=F Damp=F
 DIIS: error= 5.95D-08 at cycle  10 NSaved=  10.
 NSaved=10 IEnMin=10 EnMin= -344.593684560064     IErMin=10 ErrMin= 5.95D-08
 ErrMax= 5.95D-08  0.00D+00 EMaxC= 1.00D-01 BMatC= 1.53D-12 BMatP= 4.98D-12
 IDIUse=1 WtCom= 1.00D+00 WtEn= 0.00D+00
 Coeff-Com:  0.122D-02-0.771D-02-0.637D-02 0.160D-01 0.157D-01 0.123D-01
 Coeff-Com: -0.498D-01-0.238D+00 0.245D+00 0.101D+01
 Coeff:      0.122D-02-0.771D-02-0.637D-02 0.160D-01 0.157D-01 0.123D-01
 Coeff:     -0.498D-01-0.238D+00 0.245D+00 0.101D+01
 Gap=     0.317 Goal=   None    Shift=    0.000
 Gap=     0.349 Goal=   None    Shift=    0.000
 RMSDP=1.96D-08 MaxDP=5.08D-07 DE=-3.64D-12 OVMax= 9.80D-07

 Cycle  20  Pass 1  IDiag  1:
 RMSU=  6.57D-09    CP:  1.00D+00  2.35D+00  2.54D+00  2.78D+00  1.63D+00
                    CP:  1.94D+00  1.55D+00  2.01D+00  1.41D+00  1.39D+00
 E= -344.593684560065     Delta-E=       -0.000000000001 Rises=F Damp=F
 DIIS: error= 2.15D-08 at cycle  11 NSaved=  11.
 NSaved=11 IEnMin=11 EnMin= -344.593684560065     IErMin=11 ErrMin= 2.15D-08
 ErrMax= 2.15D-08  0.00D+00 EMaxC= 1.00D-01 BMatC= 2.69D-13 BMatP= 1.53D-12
 IDIUse=1 WtCom= 1.00D+00 WtEn= 0.00D+00
 Coeff-Com: -0.253D-03 0.298D-02 0.153D-02-0.824D-02-0.361D-02 0.194D-01
 Coeff-Com:  0.381D-01-0.472D-01-0.244D+00-0.997D-01 0.134D+01
 Coeff:     -0.253D-03 0.298D-02 0.153D-02-0.824D-02-0.361D-02 0.194D-01
 Coeff:      0.381D-01-0.472D-01-0.244D+00-0.997D-01 0.134D+01
 Gap=     0.317 Goal=   None    Shift=    0.000
 Gap=     0.349 Goal=   None    Shift=    0.000
 RMSDP=9.53D-09 MaxDP=3.38D-07 DE=-1.25D-12 OVMax= 3.35D-07

 SCF Done:  E(UwB97XD) =  -344.593684560     A.U. after   20 cycles
            NFock= 20  Conv=0.95D-08     -V/T= 2.0085
 <Sx>= 0.0000 <Sy>= 0.0000 <Sz>= 0.5000 <S**2>= 0.7822 S= 0.5160
 <L.S>=  0.00000000000    
 KE= 3.416904569727D+02 PE=-1.404816146452D+03 EE= 4.183606155162D+02
 Annihilation of the first spin contaminant:
 S**2 before annihilation     0.7822,   after     0.7503
 Leave Link  502 at Fri Sep 19 15:18:38 2025, MaxMem=   268435456 cpu:             251.8 elap:              63.3
 (Enter /apps/eb/gaussian/16-AVX2/g16/l508.exe)
 QCSCF skips out because SCF is already converged.
 Leave Link  508 at Fri Sep 19 15:18:38 2025, MaxMem=   268435456 cpu:               0.3 elap:               0.1
 (Enter /apps/eb/gaussian/16-AVX2/g16/l601.exe)
 Copying SCF densities to generalized density rwf, IOpCl= 1 IROHF=0.

 **********************************************************************

            Population analysis using the SCF Density.

 **********************************************************************

 Orbital symmetries:
 Alpha Orbitals:
       Occupied  (A) (A) (A) (A) (A) (A) (A) (A) (A) (A) (A) (A)
                 (A) (A) (A) (A) (A) (A) (A) (A) (A) (A) (A) (A)
                 (A) (A) (A)
       Virtual   (A) (A) (A) (A) (A) (A) (A) (A) (A) (A) (A) (A)
                 (A) (A) (A) (A) (A) (A) (A) (A) (A) (A) (A) (A)
                 (A) (A) (A) (A) (A) (A) (A) (A) (A) (A) (A) (A)
                 (A) (A) (A) (A) (A) (A) (A) (A) (A) (A) (A) (A)
                 (A) (A) (A) (A) (A) (A) (A) (A) (A) (A) (A) (A)
                 (A) (A) (A) (A) (A) (A) (A) (A) (A) (A) (A) (A)
                 (A) (A) (A) (A) (A) (A) (A) (A) (A) (A) (A) (A)
                 (A) (A) (A) (A) (A) (A) (A) (A) (A) (A) (A) (A)
                 (A) (A) (A) (A) (A) (A) (A) (A) (A) (A)
 Beta  Orbitals:
       Occupied  (A) (A) (A) (A) (A) (A) (A) (A) (A) (A) (A) (A)
                 (A) (A) (A) (A) (A) (A) (A) (A) (A) (A) (A) (A)
                 (A) (A)
       Virtual   (A) (A) (A) (A) (A) (A) (A) (A) (A) (A) (A) (A)
                 (A) (A) (A) (A) (A) (A) (A) (A) (A) (A) (A) (A)
                 (A) (A) (A) (A) (A) (A) (A) (A) (A) (A) (A) (A)
                 (A) (A) (A) (A) (A) (A) (A) (A) (A) (A) (A) (A)
                 (A) (A) (A) (A) (A) (A) (A) (A) (A) (A) (A) (A)
                 (A) (A) (A) (A) (A) (A) (A) (A) (A) (A) (A) (A)
                 (A) (A) (A) (A) (A) (A) (A) (A) (A) (A) (A) (A)
                 (A) (A) (A) (A) (A) (A) (A) (A) (A) (A) (A) (A)
                 (A) (A) (A) (A) (A) (A) (A) (A) (A) (A) (A)
 The electronic state is 2-A.
 Alpha  occ. eigenvalues --  -19.31946 -19.30453 -10.35846 -10.32094 -10.30609
 Alpha  occ. eigenvalues --  -10.30277 -10.30084  -1.22600  -1.02707  -0.96245
 Alpha  occ. eigenvalues --   -0.83463  -0.79879  -0.67863  -0.64655  -0.63099
 Alpha  occ. eigenvalues --   -0.59233  -0.57755  -0.53812  -0.50232  -0.49243
 Alpha  occ. eigenvalues --   -0.47932  -0.45793  -0.43185  -0.38514  -0.36717
 Alpha  occ. eigenvalues --   -0.35903  -0.22903
 Alpha virt. eigenvalues --    0.08767   0.12048   0.15047   0.16176   0.16888
 Alpha virt. eigenvalues --    0.18908   0.20585   0.21421   0.23227   0.26040
 Alpha virt. eigenvalues --    0.30021   0.31602   0.37774   0.41401   0.46827
 Alpha virt. eigenvalues --    0.48081   0.49642   0.54153   0.54650   0.57837
 Alpha virt. eigenvalues --    0.58353   0.60674   0.63404   0.66950   0.68685
 Alpha virt. eigenvalues --    0.68812   0.69930   0.71170   0.71622   0.74783
 Alpha virt. eigenvalues --    0.76335   0.77392   0.77999   0.79260   0.81958
 Alpha virt. eigenvalues --    0.82851   0.85556   0.90041   0.95217   1.01607
 Alpha virt. eigenvalues --    1.03584   1.06174   1.12067   1.13591   1.15895
 Alpha virt. eigenvalues --    1.17428   1.26567   1.28103   1.32833   1.34648
 Alpha virt. eigenvalues --    1.39238   1.43916   1.50800   1.53892   1.61031
 Alpha virt. eigenvalues --    1.62567   1.64675   1.67565   1.73323   1.76662
 Alpha virt. eigenvalues --    1.76841   1.80495   1.83909   1.86031   1.87746
 Alpha virt. eigenvalues --    1.89937   1.90886   1.93096   1.97475   1.99566
 Alpha virt. eigenvalues --    2.04841   2.08682   2.10908   2.15626   2.17274
 Alpha virt. eigenvalues --    2.19061   2.21907   2.26298   2.28544   2.29804
 Alpha virt. eigenvalues --    2.40988   2.43079   2.51301   2.54669   2.55484
 Alpha virt. eigenvalues --    2.56719   2.59198   2.60287   2.66735   2.67214
 Alpha virt. eigenvalues --    2.75545   2.77061   2.81424   2.87486   2.92590
 Alpha virt. eigenvalues --    3.02010   3.03584   3.06163   3.12259   3.20119
 Alpha virt. eigenvalues --    3.27084   3.28818   3.44759   3.53081   3.66941
 Alpha virt. eigenvalues --    3.94055
  Beta  occ. eigenvalues --  -19.31936 -19.30318 -10.35582 -10.31421 -10.30655
  Beta  occ. eigenvalues --  -10.30551 -10.29483  -1.22341  -1.02132  -0.95483
  Beta  occ. eigenvalues --   -0.82059  -0.79631  -0.66579  -0.64183  -0.62326
  Beta  occ. eigenvalues --   -0.58657  -0.57043  -0.53437  -0.49485  -0.48685
  Beta  occ. eigenvalues --   -0.47406  -0.45366  -0.41327  -0.38351  -0.36427
  Beta  occ. eigenvalues --   -0.33750
  Beta virt. eigenvalues --    0.01126   0.10089   0.13098   0.15616   0.16460
  Beta virt. eigenvalues --    0.17531   0.19265   0.20876   0.21719   0.23545
  Beta virt. eigenvalues --    0.26479   0.30500   0.32321   0.38299   0.41890
  Beta virt. eigenvalues --    0.47259   0.48437   0.50208   0.54791   0.55185
  Beta virt. eigenvalues --    0.58125   0.59199   0.62400   0.63820   0.67470
  Beta virt. eigenvalues --    0.69394   0.69922   0.70400   0.71603   0.72506
  Beta virt. eigenvalues --    0.75285   0.76561   0.77679   0.78319   0.79709
  Beta virt. eigenvalues --    0.82366   0.83337   0.86155   0.90374   0.95473
  Beta virt. eigenvalues --    1.01832   1.03930   1.06421   1.12296   1.13843
  Beta virt. eigenvalues --    1.16124   1.17617   1.27268   1.28238   1.33850
  Beta virt. eigenvalues --    1.35083   1.39431   1.44270   1.51213   1.54111
  Beta virt. eigenvalues --    1.61425   1.63494   1.64935   1.68011   1.73642
  Beta virt. eigenvalues --    1.77075   1.77400   1.80947   1.84276   1.87252
  Beta virt. eigenvalues --    1.88103   1.90500   1.91740   1.93741   1.98350
  Beta virt. eigenvalues --    2.00175   2.05464   2.09131   2.11323   2.15889
  Beta virt. eigenvalues --    2.17869   2.19362   2.22906   2.27110   2.28721
  Beta virt. eigenvalues --    2.30912   2.42349   2.43948   2.52037   2.55266
  Beta virt. eigenvalues --    2.55942   2.57127   2.60034   2.61081   2.67228
  Beta virt. eigenvalues --    2.67921   2.76052   2.77598   2.82259   2.88253
  Beta virt. eigenvalues --    2.93043   3.02187   3.03870   3.06522   3.12648
  Beta virt. eigenvalues --    3.20424   3.27368   3.29135   3.45006   3.53434
  Beta virt. eigenvalues --    3.67017   3.94270
          Condensed to atoms (all electrons):
               1          2          3          4          5          6
     1  C    5.109985  -0.017364   0.320942   0.013017  -0.047277   0.328783
     2  C   -0.017364   5.672197  -0.035419   0.283226   0.424741  -0.070695
     3  O    0.320942  -0.035419   7.906325   0.003870   0.001661  -0.016303
     4  C    0.013017   0.283226   0.003870   4.897869  -0.038022   0.020432
     5  H   -0.047277   0.424741   0.001661  -0.038022   0.609463  -0.005808
     6  H    0.328783  -0.070695  -0.016303   0.020432  -0.005808   0.697428
     7  C   -0.058011   0.015984   0.004068   0.460085   0.006400  -0.012338
     8  H    0.005766  -0.053931  -0.000070   0.440108  -0.005138  -0.001261
     9  C    0.366776  -0.151293  -0.042304  -0.030259   0.010462  -0.013102
    10  H    0.005410   0.009572  -0.000069  -0.044054  -0.000204  -0.000486
    11  H   -0.007814  -0.006253  -0.005763   0.003567  -0.000236   0.006861
    12  H   -0.023080   0.015143   0.002742  -0.000636  -0.000246  -0.010156
    13  O   -0.064123   0.001017   0.096278  -0.000408   0.000174   0.007725
    14  H   -0.004010   0.009131  -0.019110  -0.000830   0.000159  -0.001240
               7          8          9         10         11         12
     1  C   -0.058011   0.005766   0.366776   0.005410  -0.007814  -0.023080
     2  C    0.015984  -0.053931  -0.151293   0.009572  -0.006253   0.015143
     3  O    0.004068  -0.000070  -0.042304  -0.000069  -0.005763   0.002742
     4  C    0.460085   0.440108  -0.030259  -0.044054   0.003567  -0.000636
     5  H    0.006400  -0.005138   0.010462  -0.000204  -0.000236  -0.000246
     6  H   -0.012338  -0.001261  -0.013102  -0.000486   0.006861  -0.010156
     7  C    5.127329  -0.056373   0.283781   0.420942  -0.019428  -0.019341
     8  H   -0.056373   0.642927   0.010416  -0.006478  -0.000299  -0.000183
     9  C    0.283781   0.010416   4.794870  -0.040344   0.351778   0.373763
    10  H    0.420942  -0.006478  -0.040344   0.628359  -0.000789  -0.001692
    11  H   -0.019428  -0.000299   0.351778  -0.000789   0.630731  -0.027527
    12  H   -0.019341  -0.000183   0.373763  -0.001692  -0.027527   0.635162
    13  O   -0.000427  -0.000018  -0.002614  -0.000008   0.009781  -0.000286
    14  H    0.000280   0.000006  -0.001225   0.000002  -0.000402   0.000021
              13         14
     1  C   -0.064123  -0.004010
     2  C    0.001017   0.009131
     3  O    0.096278  -0.019110
     4  C   -0.000408  -0.000830
     5  H    0.000174   0.000159
     6  H    0.007725  -0.001240
     7  C   -0.000427   0.000280
     8  H   -0.000018   0.000006
     9  C   -0.002614  -0.001225
    10  H   -0.000008   0.000002
    11  H    0.009781  -0.000402
    12  H   -0.000286   0.000021
    13  O    7.816225   0.308749
    14  H    0.308749   0.513381
          Atomic-Atomic Spin Densities.
               1          2          3          4          5          6
     1  C    0.357650  -0.264120  -0.013831   0.022770  -0.001242   0.091504
     2  C   -0.264120   0.935865   0.010227  -0.026965   0.005539  -0.077323
     3  O   -0.013831   0.010227   0.017472  -0.001027   0.000224  -0.007831
     4  C    0.022770  -0.026965  -0.001027  -0.233614  -0.000366   0.006397
     5  H   -0.001242   0.005539   0.000224  -0.000366  -0.031534   0.000888
     6  H    0.091504  -0.077323  -0.007831   0.006397   0.000888  -0.036731
     7  C    0.026150  -0.062974   0.000123  -0.015049  -0.000155   0.010146
     8  H   -0.000509   0.001285   0.000007  -0.001564   0.000196  -0.000126
     9  C   -0.027449   0.033775   0.003174  -0.006354  -0.000330  -0.013772
    10  H   -0.000516   0.000436   0.000008  -0.000836   0.000009  -0.000064
    11  H   -0.000754  -0.003846  -0.002339   0.003594   0.000005   0.002367
    12  H   -0.015285   0.006689   0.000765  -0.001199   0.000009  -0.002365
    13  O   -0.002309   0.000558  -0.022988   0.000264   0.000025   0.001066
    14  H   -0.000353  -0.000285   0.000788   0.000009  -0.000041   0.000052
               7          8          9         10         11         12
     1  C    0.026150  -0.000509  -0.027449  -0.000516  -0.000754  -0.015285
     2  C   -0.062974   0.001285   0.033775   0.000436  -0.003846   0.006689
     3  O    0.000123   0.000007   0.003174   0.000008  -0.002339   0.000765
     4  C   -0.015049  -0.001564  -0.006354  -0.000836   0.003594  -0.001199
     5  H   -0.000155   0.000196  -0.000330   0.000009   0.000005   0.000009
     6  H    0.010146  -0.000126  -0.013772  -0.000064   0.002367  -0.002365
     7  C    0.644911  -0.000572  -0.037357   0.004501  -0.016939  -0.015642
     8  H   -0.000572   0.009674   0.000262   0.000271  -0.000086   0.000036
     9  C   -0.037357   0.000262  -0.030340   0.000668  -0.005682   0.023454
    10  H    0.004501   0.000271   0.000668  -0.028380  -0.000761   0.000628
    11  H   -0.016939  -0.000086  -0.005682  -0.000761   0.091849  -0.016373
    12  H   -0.015642   0.000036   0.023454   0.000628  -0.016373   0.048068
    13  O   -0.000131  -0.000002  -0.001394  -0.000002   0.001778  -0.000245
    14  H    0.000001   0.000000   0.000077   0.000000  -0.000041   0.000002
              13         14
     1  C   -0.002309  -0.000353
     2  C    0.000558  -0.000285
     3  O   -0.022988   0.000788
     4  C    0.000264   0.000009
     5  H    0.000025  -0.000041
     6  H    0.001066   0.000052
     7  C   -0.000131   0.000001
     8  H   -0.000002   0.000000
     9  C   -0.001394   0.000077
    10  H   -0.000002   0.000000
    11  H    0.001778  -0.000041
    12  H   -0.000245   0.000002
    13  O    0.074125   0.000167
    14  H    0.000167  -0.002012
 Mulliken charges and spin densities:
               1          2
     1  C    0.071000   0.171704
     2  C   -0.096057   0.558859
     3  O   -0.216849  -0.015228
     4  C   -0.007966  -0.253940
     5  H    0.043871  -0.026774
     6  H    0.070161  -0.025790
     7  C   -0.152950   0.537013
     8  H    0.024527   0.008873
     9  C    0.089295  -0.061268
    10  H    0.029840  -0.024039
    11  H    0.065791   0.052772
    12  H    0.056315   0.028541
    13  O   -0.172066   0.050913
    14  H    0.195088  -0.001635
 Sum of Mulliken charges =  -0.00000   1.00000
 Mulliken charges and spin densities with hydrogens summed into heavy atoms:
               1          2
     1  C    0.141161   0.145914
     2  C   -0.052186   0.532085
     3  O   -0.216849  -0.015228
     4  C    0.016561  -0.245067
     7  C   -0.123111   0.512974
     9  C    0.211401   0.020045
    13  O    0.023022   0.049277
 Electronic spatial extent (au):  <R**2>=            720.5635
 Charge=             -0.0000 electrons
 Dipole moment (field-independent basis, Debye):
    X=             -0.9930    Y=              1.7676    Z=              0.0566  Tot=              2.0282
 Quadrupole moment (field-independent basis, Debye-Ang):
   XX=            -42.0975   YY=            -36.7120   ZZ=            -42.9430
   XY=              4.5745   XZ=             -1.1699   YZ=             -0.4681
 Traceless Quadrupole moment (field-independent basis, Debye-Ang):
   XX=             -1.5133   YY=              3.8722   ZZ=             -2.3588
   XY=              4.5745   XZ=             -1.1699   YZ=             -0.4681
 Octapole moment (field-independent basis, Debye-Ang**2):
  XXX=             13.7134  YYY=              3.5714  ZZZ=             -0.2678  XYY=              7.5627
  XXY=             11.2005  XXZ=             -8.0829  XZZ=              7.1862  YZZ=              0.6359
  YYZ=             -1.3565  XYZ=             -2.8253
 Hexadecapole moment (field-independent basis, Debye-Ang**3):
 XXXX=           -555.3673 YYYY=           -213.3140 ZZZZ=           -104.4498 XXXY=             27.5382
 XXXZ=             -4.1366 YYYX=              5.9581 YYYZ=             -2.0665 ZZZX=             -9.3125
 ZZZY=             -0.6057 XXYY=           -117.9259 XXZZ=           -118.4656 YYZZ=            -53.8130
 XXYZ=             -9.8142 YYXZ=             -3.0522 ZZXY=              4.8773
 N-N= 3.001713894029D+02 E-N=-1.404816146090D+03  KE= 3.416904569727D+02
                          Isotropic Fermi Contact Couplings
        Atom                 a.u.       MegaHertz       Gauss      10(-4) cm-1
     1  C(13)              0.05334      59.96500      21.39700      20.00217
     2  C(13)              0.09871     110.96736      39.59592      37.01473
     3  O(17)              0.13963     -84.64440     -30.20323     -28.23433
     4  C(13)             -0.06335     -71.21788     -25.41231     -23.75573
     5  H(1)              -0.00831     -37.13681     -13.25134     -12.38751
     6  H(1)              -0.01160     -51.84184     -18.49846     -17.29258
     7  C(13)              0.09303     104.57791      37.31600      34.88343
     8  H(1)               0.00257      11.48538       4.09827       3.83111
     9  C(13)             -0.01951     -21.92924      -7.82490      -7.31481
    10  H(1)              -0.00734     -32.81544     -11.70936     -10.94605
    11  H(1)               0.02272     101.53856      36.23148      33.86962
    12  H(1)               0.01565      69.94970      24.95979      23.33271
    13  O(17)              0.02919     -17.69737      -6.31486      -5.90321
    14  H(1)              -0.00073      -3.25398      -1.16110      -1.08541
 --------------------------------------------------------
       Center         ----  Spin Dipole Couplings  ----
                      3XX-RR        3YY-RR        3ZZ-RR
 --------------------------------------------------------
     1   Atom       -0.121241     -0.123519      0.244759
     2   Atom       -0.255328     -0.298138      0.553466
     3   Atom        0.021731      0.046090     -0.067821
     4   Atom        0.078242      0.102869     -0.181111
     5   Atom       -0.026127      0.030061     -0.003934
     6   Atom       -0.017875      0.024474     -0.006599
     7   Atom       -0.211716     -0.280463      0.492179
     8   Atom        0.003332      0.002946     -0.006278
     9   Atom       -0.010448      0.003149      0.007300
    10   Atom        0.019132     -0.019448      0.000315
    11   Atom        0.001927      0.001184     -0.003111
    12   Atom       -0.002739      0.007738     -0.004999
    13   Atom       -0.054022     -0.109852      0.163874
    14   Atom       -0.000035      0.005845     -0.005810
 --------------------------------------------------------
                        XY            XZ            YZ
 --------------------------------------------------------
     1   Atom       -0.003365      0.003997      0.029475
     2   Atom        0.015893     -0.223622     -0.044439
     3   Atom       -0.001837      0.032277     -0.030269
     4   Atom        0.006757      0.080960      0.004259
     5   Atom        0.030487     -0.008140      0.005600
     6   Atom       -0.052537      0.011807     -0.019459
     7   Atom        0.007165     -0.202837     -0.005930
     8   Atom        0.007175      0.003696      0.002128
     9   Atom        0.003366      0.008502      0.009072
    10   Atom        0.031938      0.006931      0.008520
    11   Atom       -0.004477     -0.003004      0.004486
    12   Atom       -0.000176      0.001663     -0.005965
    13   Atom       -0.003055     -0.117771      0.008769
    14   Atom        0.004608     -0.004693     -0.000373
 --------------------------------------------------------


 ---------------------------------------------------------------------------------
              Anisotropic Spin Dipole Couplings in Principal Axis System
 ---------------------------------------------------------------------------------

       Atom             a.u.   MegaHertz   Gauss  10(-4) cm-1        Axes

              Baa    -0.1279   -17.163    -6.124    -5.725  0.4849  0.8714 -0.0741
     1 C(13)  Bbb    -0.1192   -16.001    -5.710    -5.337  0.8745 -0.4841  0.0296
              Bcc     0.2471    33.164    11.834    11.062  0.0101  0.0792  0.9968
 
              Baa    -0.3144   -42.185   -15.053   -14.071  0.9286 -0.2957  0.2241
     2 C(13)  Bbb    -0.2992   -40.154   -14.328   -13.394  0.2744  0.9539  0.1217
              Bcc     0.6136    82.339    29.381    27.465 -0.2498 -0.0515  0.9669
 
              Baa    -0.0844     6.107     2.179     2.037 -0.2809  0.2131  0.9358
     3 O(17)  Bbb     0.0275    -1.989    -0.710    -0.663  0.9037  0.3871  0.1831
              Bcc     0.0569    -4.119    -1.470    -1.374 -0.3232  0.8971 -0.3013
 
              Baa    -0.2043   -27.418    -9.784    -9.146 -0.2753 -0.0073  0.9613
     4 C(13)  Bbb     0.0945    12.676     4.523     4.228  0.7123 -0.6731  0.1989
              Bcc     0.1099    14.743     5.261     4.918  0.6456  0.7395  0.1905
 
              Baa    -0.0420   -22.392    -7.990    -7.469  0.8852 -0.3939  0.2475
     5 H(1)   Bbb    -0.0015    -0.817    -0.291    -0.272 -0.2427  0.0626  0.9681
              Bcc     0.0435    23.209     8.282     7.742  0.3968  0.9170  0.0402
 
              Baa    -0.0534   -28.477   -10.161    -9.499  0.8256  0.5637  0.0261
     6 H(1)   Bbb    -0.0136    -7.255    -2.589    -2.420 -0.1872  0.2299  0.9551
              Bcc     0.0670    35.732    12.750    11.919 -0.5324  0.7934 -0.2953
 
              Baa    -0.2823   -37.883   -13.518   -12.637 -0.3050  0.9496 -0.0726
     7 C(13)  Bbb    -0.2642   -35.454   -12.651   -11.826  0.9166  0.3134  0.2483
              Bcc     0.5465    73.337    26.169    24.463 -0.2585 -0.0092  0.9660
 
              Baa    -0.0075    -4.028    -1.437    -1.344 -0.3506  0.0500  0.9352
     8 H(1)   Bbb    -0.0037    -1.997    -0.713    -0.666 -0.6127  0.7430 -0.2695
              Bcc     0.0113     6.025     2.150     2.010  0.7083  0.6675  0.2298
 
              Baa    -0.0139    -1.861    -0.664    -0.621  0.9248  0.0195 -0.3798
     9 C(13)  Bbb    -0.0034    -0.463    -0.165    -0.154 -0.2292  0.8257 -0.5155
              Bcc     0.0173     2.324     0.829     0.775  0.3035  0.5638  0.7681
 
              Baa    -0.0379   -20.225    -7.217    -6.746 -0.4756  0.8730 -0.1083
    10 H(1)   Bbb    -0.0019    -1.018    -0.363    -0.339 -0.2726 -0.0291  0.9617
              Bcc     0.0398    21.243     7.580     7.086  0.8364  0.4869  0.2518
 
              Baa    -0.0059    -3.170    -1.131    -1.057  0.0314 -0.5183  0.8546
    11 H(1)   Bbb    -0.0025    -1.343    -0.479    -0.448  0.7706  0.5571  0.3095
              Bcc     0.0085     4.513     1.610     1.505 -0.6365  0.6489  0.4169
 
              Baa    -0.0078    -4.158    -1.484    -1.387 -0.2831  0.3411  0.8964
    12 H(1)   Bbb    -0.0023    -1.253    -0.447    -0.418  0.9572  0.1596  0.2416
              Bcc     0.0101     5.411     1.931     1.805 -0.0606  0.9264 -0.3716
 
              Baa    -0.1102     7.976     2.846     2.660 -0.1259  0.9883 -0.0857
    13 O(17)  Bbb    -0.1054     7.627     2.721     2.544  0.9077  0.1496  0.3921
              Bcc     0.2156   -15.602    -5.567    -5.204 -0.4004  0.0284  0.9159
 
              Baa    -0.0087    -4.651    -1.660    -1.551  0.5293 -0.1461  0.8358
    14 H(1)   Bbb    -0.0002    -0.082    -0.029    -0.028  0.6640 -0.5420 -0.5152
              Bcc     0.0089     4.733     1.689     1.579  0.5282  0.8276 -0.1899
 

 ---------------------------------------------------------------------------------

 No NMR shielding tensors so no spin-rotation constants.
 Leave Link  601 at Fri Sep 19 15:18:40 2025, MaxMem=   268435456 cpu:               5.7 elap:               1.5
 (Enter /apps/eb/gaussian/16-AVX2/g16/l701.exe)
 ... and contract with generalized density number  0.
 Compute integral first derivatives.
 R6Disp: Adding Grimme-D2 dispersion energy 1st derivatives to the gradient.
   1 Symmetry operations used in ECPInt.
 ECPInt:  NShTT=    2016 NPrTT=    7252 LenC2=    2009 LenP2D=    6007.
 LDataN:  DoStor=T MaxTD1= 5 Len=  102
 Leave Link  701 at Fri Sep 19 15:18:41 2025, MaxMem=   268435456 cpu:               5.1 elap:               1.3
 (Enter /apps/eb/gaussian/16-AVX2/g16/l702.exe)
 L702 exits ... SP integral derivatives will be done elsewhere.
 Leave Link  702 at Fri Sep 19 15:18:41 2025, MaxMem=   268435456 cpu:               0.3 elap:               0.1
 (Enter /apps/eb/gaussian/16-AVX2/g16/l703.exe)
 Integral derivatives from FoFJK, PRISM(SPDF).
 Compute integral first derivatives, UseDBF=F ICtDFT=           0.
 Calling FoFJK, ICntrl=      2127 FMM=F ISym2X=0 I1Cent= 0 IOpClX= 1 NMat=1 NMatS=1 NMatT=0.
 FoFJK:  IHMeth= 1 ICntrl=    2127 DoSepK=T KAlg= 0 I1Cent=           0 FoldK=F
 IRaf=         1 NMat=       1 IRICut=       1 DoRegI=T DoRafI=F ISym2E= 0 IDoP0=0 IntGTp=1.
 FoFCou: FMM=F IPFlag=           0 FMFlag=      100000 FMFlg1=         800
         NFxFlg=           0 DoJE=F BraDBF=F KetDBF=F FulRan=T
         wScrn=  0.000000 ICntrl=      2527 IOpCl=  0 I1Cent=           0 NGrid=           0
         NMat0=    1 NMatS0=      1 NMatT0=    0 NMatD0=    1 NMtDS0=    0 NMtDT0=    0
 Symmetry not used in FoFCou.
 Leave Link  703 at Fri Sep 19 15:18:47 2025, MaxMem=   268435456 cpu:              21.4 elap:               5.4
 (Enter /apps/eb/gaussian/16-AVX2/g16/l716.exe)
 Dipole        =-3.90684181D-01 6.95419272D-01 2.22555681D-02
 ***** Axes restored to original set *****
 -------------------------------------------------------------------
 Center     Atomic                   Forces (Hartrees/Bohr)
 Number     Number              X              Y              Z
 -------------------------------------------------------------------
      1        6           0.000040728   -0.000057030    0.000056918
      2        6           0.009517767    0.046690298    0.044095603
      3        8          -0.001678013   -0.003351284   -0.000363378
      4        6           0.000029967   -0.000013549    0.000047325
      5        1          -0.000030194    0.000032934    0.000004429
      6        1          -0.009498692   -0.046687725   -0.044132802
      7        6          -0.000036426    0.000026912   -0.000045332
      8        1           0.000006125   -0.000004636   -0.000019080
      9        6          -0.000032392   -0.000018167   -0.000016557
     10        1           0.000022696   -0.000008120    0.000000016
     11        1          -0.000004510    0.000011973   -0.000007318
     12        1           0.000015161    0.000013930    0.000020568
     13        8           0.001636118    0.003367604    0.000338635
     14        1           0.000011665   -0.000003139    0.000020974
 -------------------------------------------------------------------
 Cartesian Forces:  Max     0.046690298 RMS     0.014193392
 -----------------------------------------------------------------------------------------------
                       Internal Coordinate Forces (Hartree/Bohr or radian)
  Cent   Atom   N1       Length/X         N2         Alpha/Y        N3         Beta/Z          J
 -----------------------------------------------------------------------------------------------
      1  C 
      2  C        1  -0.000051(     1)
      3  O        1  -0.000024(     2)      2   0.000025(    14)
      4  C        2  -0.000003(     3)      1   0.000032(    15)      3  -0.000015(    26)     0
      5  H        2  -0.000032(     4)      1   0.000054(    16)      4   0.000030(    27)     0
      6  H        2   0.064944(     5)      1  -0.000085(    17)      4  -0.000024(    28)     0
      7  C        4   0.000064(     6)      2   0.000078(    18)      1  -0.000031(    29)     0
      8  H        4  -0.000020(     7)      2  -0.000004(    19)      7  -0.000007(    30)     0
      9  C        7  -0.000011(     8)      4   0.000065(    20)      2  -0.000017(    31)     0
     10  H        7  -0.000024(     9)      4  -0.000003(    21)      9   0.000001(    32)     0
     11  H        9   0.000012(    10)      7  -0.000004(    22)      4  -0.000016(    33)     0
     12  H        9  -0.000029(    11)      7   0.000001(    23)     11  -0.000000(    34)     0
     13  O        3   0.003764(    12)      1  -0.000011(    24)      9   0.000011(    35)     0
     14  H       13   0.000023(    13)      3  -0.000000(    25)      1  -0.000013(    36)     0
 -----------------------------------------------------------------------------------------------
 Internal  Forces:  Max     0.064943604 RMS     0.010842141
 Force constants in internal coordinates: 
                1             2             3             4             5 
      1  0.636584D+00
      2  0.000000D+00  0.524454D+00
      3 -0.125365D-01  0.000000D+00  0.673812D+00
      4  0.000000D+00  0.000000D+00  0.000000D+00  0.348126D+00
      5 -0.493705D-01  0.000000D+00 -0.118570D-02  0.000000D+00  0.292710D+00
      6 -0.131164D+00  0.000000D+00  0.170208D+00  0.000000D+00  0.260083D-02
      7  0.000000D+00  0.000000D+00  0.000000D+00  0.000000D+00  0.000000D+00
      8 -0.796862D-01  0.000000D+00 -0.115659D+00  0.000000D+00  0.273067D-02
      9  0.000000D+00  0.000000D+00  0.000000D+00  0.000000D+00  0.000000D+00
     10  0.000000D+00  0.000000D+00  0.000000D+00  0.000000D+00  0.000000D+00
     11  0.000000D+00  0.000000D+00  0.000000D+00  0.000000D+00  0.000000D+00
     12  0.000000D+00  0.000000D+00  0.000000D+00  0.000000D+00  0.000000D+00
     13  0.000000D+00  0.000000D+00  0.000000D+00  0.000000D+00  0.000000D+00
     14 -0.740521D-01  0.000000D+00 -0.449436D-01  0.000000D+00  0.437106D-02
     15  0.250171D-01  0.000000D+00  0.813444D+00  0.000000D+00 -0.937088D-02
     16  0.000000D+00  0.000000D+00  0.000000D+00  0.000000D+00  0.000000D+00
     17  0.335703D+00  0.000000D+00  0.949628D-03  0.000000D+00  0.251495D+00
     18 -0.334694D+00  0.000000D+00  0.106603D+01  0.000000D+00 -0.152071D-03
     19  0.000000D+00  0.000000D+00  0.000000D+00  0.000000D+00  0.000000D+00
     20 -0.426068D+00  0.000000D+00  0.573822D+00  0.000000D+00  0.610498D-02
     21  0.420843D-05  0.000000D+00 -0.136756D-05  0.000000D+00  0.000000D+00
     22  0.627558D-02  0.000000D+00  0.803508D-02  0.000000D+00  0.252982D-02
     23  0.211017D-01  0.000000D+00  0.888044D-02  0.000000D+00 -0.252845D-02
     24  0.000000D+00  0.000000D+00  0.000000D+00  0.000000D+00  0.000000D+00
     25  0.000000D+00  0.000000D+00  0.000000D+00  0.000000D+00  0.000000D+00
     26 -0.847003D-02  0.000000D+00  0.201433D-01  0.000000D+00  0.335952D-01
     27  0.000000D+00  0.000000D+00 -0.604592D-03  0.000000D+00  0.000000D+00
     28 -0.284760D-01  0.000000D+00 -0.182596D-01  0.000000D+00  0.119306D-01
     29  0.212969D-01  0.000000D+00 -0.464296D-01  0.000000D+00  0.453777D-01
     30  0.000000D+00  0.000000D+00  0.000000D+00  0.000000D+00  0.000000D+00
     31  0.103622D-01  0.000000D+00 -0.413162D-01  0.000000D+00  0.301545D-01
     32 -0.377120D-03  0.000000D+00  0.122548D-03  0.000000D+00  0.000000D+00
     33 -0.124846D-01  0.000000D+00  0.324631D-02  0.000000D+00 -0.213970D-02
     34 -0.276226D-01  0.000000D+00 -0.121327D-01  0.000000D+00 -0.117801D-02
     35  0.175505D-01  0.000000D+00  0.288948D-02  0.000000D+00 -0.970810D-02
     36  0.000000D+00  0.000000D+00  0.000000D+00  0.000000D+00  0.000000D+00
                6             7             8             9            10 
      6  0.737105D+00
      7  0.000000D+00  0.347665D+00
      8  0.893404D-03  0.000000D+00  0.433276D+00
      9  0.000000D+00  0.000000D+00  0.000000D+00  0.348126D+00
     10  0.000000D+00  0.000000D+00  0.000000D+00  0.000000D+00  0.327487D+00
     11  0.000000D+00  0.000000D+00  0.000000D+00  0.000000D+00  0.000000D+00
     12  0.000000D+00  0.000000D+00  0.000000D+00  0.000000D+00  0.000000D+00
     13  0.000000D+00  0.000000D+00  0.000000D+00  0.000000D+00  0.000000D+00
     14  0.405752D-01  0.000000D+00  0.735561D-01  0.000000D+00  0.000000D+00
     15  0.521535D+00  0.000000D+00 -0.443970D+00  0.000000D+00  0.000000D+00
     16  0.000000D+00  0.000000D+00  0.000000D+00  0.000000D+00  0.000000D+00
     17 -0.208302D-02  0.000000D+00 -0.218700D-02  0.000000D+00  0.000000D+00
     18  0.104084D+01  0.000000D+00 -0.329444D+00  0.000000D+00  0.000000D+00
     19  0.000000D+00  0.000000D+00  0.000000D+00  0.000000D+00  0.000000D+00
     20  0.800621D+00  0.000000D+00 -0.780638D-02  0.000000D+00  0.000000D+00
     21 -0.310047D-05  0.000000D+00  0.000000D+00  0.000000D+00  0.000000D+00
     22 -0.455528D-02  0.000000D+00 -0.117571D-01  0.000000D+00  0.000000D+00
     23 -0.114039D-01  0.000000D+00 -0.162825D-01  0.000000D+00  0.000000D+00
     24  0.000000D+00  0.000000D+00  0.000000D+00  0.000000D+00  0.000000D+00
     25  0.000000D+00  0.000000D+00  0.000000D+00  0.000000D+00  0.000000D+00
     26 -0.118454D-01  0.000000D+00 -0.296938D-01  0.000000D+00  0.000000D+00
     27 -0.986417D-04  0.000000D+00  0.656758D-03  0.000000D+00  0.000000D+00
     28  0.905991D-02  0.000000D+00  0.260507D-01  0.000000D+00  0.000000D+00
     29 -0.110669D+00  0.000000D+00 -0.387836D-01  0.000000D+00  0.000000D+00
     30  0.000000D+00  0.000000D+00  0.000000D+00  0.000000D+00  0.000000D+00
     31 -0.819116D-01  0.000000D+00 -0.233728D-01  0.000000D+00  0.000000D+00
     32  0.277835D-03  0.000000D+00  0.000000D+00  0.000000D+00  0.000000D+00
     33  0.103981D-01  0.000000D+00  0.156861D-02  0.000000D+00  0.000000D+00
     34  0.176400D-01  0.000000D+00  0.233090D-01  0.000000D+00  0.000000D+00
     35 -0.548184D-02  0.000000D+00 -0.621243D-02  0.000000D+00  0.000000D+00
     36  0.000000D+00  0.000000D+00  0.000000D+00  0.000000D+00  0.000000D+00
               11            12            13            14            15 
     11  0.333198D+00
     12  0.000000D+00  0.398195D+00
     13  0.000000D+00  0.000000D+00  0.539531D+00
     14  0.000000D+00  0.000000D+00  0.000000D+00  0.483030D+00
     15  0.000000D+00  0.000000D+00  0.000000D+00 -0.279024D+00  0.351909D+01
     16  0.000000D+00  0.000000D+00  0.000000D+00  0.000000D+00  0.161164D+00
     17  0.000000D+00  0.000000D+00  0.000000D+00 -0.350080D-02  0.896646D-02
     18  0.000000D+00  0.000000D+00  0.000000D+00 -0.121063D+00  0.372445D+01
     19  0.000000D+00  0.000000D+00  0.000000D+00  0.000000D+00 -0.100221D-04
     20  0.000000D+00  0.000000D+00  0.000000D+00  0.424090D-01  0.196825D+01
     21  0.000000D+00  0.000000D+00  0.000000D+00  0.000000D+00 -0.513160D-05
     22  0.000000D+00  0.000000D+00  0.000000D+00 -0.353219D-02  0.175965D-01
     23  0.000000D+00  0.000000D+00  0.000000D+00  0.353028D-02  0.669284D-02
     24  0.000000D+00  0.000000D+00  0.000000D+00  0.000000D+00  0.000000D+00
     25  0.000000D+00  0.000000D+00  0.000000D+00  0.000000D+00  0.000000D+00
     26  0.000000D+00  0.000000D+00  0.000000D+00 -0.103307D+00  0.108326D+00
     27  0.000000D+00  0.000000D+00  0.000000D+00  0.000000D+00 -0.121899D-01
     28  0.000000D+00  0.000000D+00  0.000000D+00 -0.549994D-01 -0.196825D-01
     29  0.000000D+00  0.000000D+00  0.000000D+00 -0.479885D-01 -0.939173D-01
     30  0.000000D+00  0.000000D+00  0.000000D+00  0.000000D+00 -0.633817D-02
     31  0.000000D+00  0.000000D+00  0.000000D+00 -0.303179D-01 -0.906551D-01
     32  0.000000D+00  0.000000D+00  0.000000D+00  0.000000D+00  0.233958D-03
     33  0.000000D+00  0.000000D+00  0.000000D+00  0.298750D-02  0.211659D-01
     34  0.000000D+00  0.000000D+00  0.000000D+00  0.164476D-02 -0.995443D-02
     35  0.000000D+00  0.000000D+00  0.000000D+00 -0.253441D-01  0.241503D-01
     36  0.000000D+00  0.000000D+00  0.000000D+00  0.000000D+00  0.000000D+00
               16            17            18            19            20 
     16  0.403075D+00
     17 -0.541077D-01  0.216136D+01
     18  0.000000D+00  0.121794D-03  0.604876D+01
     19  0.000000D+00  0.000000D+00  0.159612D+00  0.319693D+00
     20  0.000000D+00 -0.488950D-02  0.368042D+01  0.000000D+00  0.326660D+01
     21  0.000000D+00  0.000000D+00 -0.130563D-04  0.000000D+00  0.159979D+00
     22  0.000000D+00 -0.202614D-02 -0.540823D-02  0.000000D+00 -0.325994D-01
     23  0.000000D+00  0.202504D-02 -0.326252D-01  0.000000D+00 -0.676161D-01
     24  0.000000D+00  0.000000D+00  0.000000D+00  0.000000D+00  0.000000D+00
     25  0.000000D+00  0.000000D+00  0.000000D+00  0.000000D+00  0.000000D+00
     26 -0.581898D-02 -0.279868D-01  0.603740D-01  0.667807D-04 -0.591208D-02
     27  0.580851D-01 -0.593523D-01 -0.246082D-02  0.000000D+00 -0.101079D-02
     28 -0.714467D-01  0.310240D-01 -0.581995D-01  0.000000D+00 -0.324819D-03
     29 -0.374837D-02 -0.768584D-01 -0.340380D+00 -0.154065D-03 -0.315872D+00
     30 -0.187419D-02 -0.202576D-01 -0.562149D-02 -0.344482D-02  0.000000D+00
     31  0.000000D+00 -0.241508D-01 -0.284706D+00 -0.367122D-02 -0.249118D+00
     32  0.000000D+00  0.000000D+00  0.197422D-03 -0.183561D-02  0.199322D-02
     33  0.000000D+00  0.171369D-02  0.425468D-01  0.000000D+00  0.396842D-01
     34  0.000000D+00  0.943471D-03  0.501363D-01  0.000000D+00  0.988985D-01
     35  0.000000D+00  0.777525D-02  0.390195D-02  0.000000D+00 -0.997384D-02
     36  0.000000D+00  0.000000D+00  0.000000D+00  0.000000D+00  0.000000D+00
               21            22            23            24            25 
     21  0.319990D+00
     22  0.000000D+00  0.253116D+00
     23  0.000000D+00  0.530884D-01  0.260400D+00
     24  0.000000D+00  0.000000D+00  0.000000D+00  0.250000D+00
     25  0.000000D+00  0.000000D+00  0.000000D+00  0.000000D+00  0.160000D+00
     26 -0.285799D-04 -0.448115D-02  0.436319D-02  0.000000D+00  0.000000D+00
     27  0.000000D+00  0.000000D+00  0.000000D+00  0.000000D+00  0.000000D+00
     28  0.000000D+00  0.586097D-03 -0.585779D-03  0.000000D+00  0.000000D+00
     29 -0.729103D-04  0.617480D-01 -0.574336D-01  0.000000D+00  0.000000D+00
     30  0.000000D+00  0.000000D+00  0.000000D+00  0.000000D+00  0.000000D+00
     31 -0.861955D-04  0.920810D-01 -0.880470D-01  0.000000D+00  0.000000D+00
     32  0.791117D-03  0.000000D+00  0.000000D+00  0.000000D+00  0.000000D+00
     33  0.148820D-03  0.460350D-01 -0.512979D-01  0.000000D+00  0.000000D+00
     34  0.744102D-04  0.689375D-01  0.155772D-01  0.000000D+00  0.000000D+00
     35  0.000000D+00  0.000000D+00  0.000000D+00  0.000000D+00  0.000000D+00
     36  0.000000D+00  0.000000D+00  0.000000D+00  0.000000D+00  0.000000D+00
               26            27            28            29            30 
     26  0.263237D+00
     27  0.696590D-02  0.172811D+00
     28  0.111349D+00 -0.716543D-01  0.423689D+00
     29  0.171115D+00 -0.580165D-01 -0.211849D+00  0.104365D+01
     30  0.178651D-02 -0.203507D-01 -0.205358D-02  0.539378D-01  0.137600D+00
     31  0.100062D+00 -0.106291D-01 -0.126476D+00  0.798895D+00 -0.481578D-01
     32  0.489752D-02  0.000000D+00  0.000000D+00  0.685387D-02 -0.240789D-01
     33  0.382283D-02  0.000000D+00 -0.495716D-03  0.201005D+00  0.000000D+00
     34  0.217559D-02  0.000000D+00 -0.272916D-03  0.883101D-01  0.000000D+00
     35 -0.346862D-01  0.000000D+00  0.865350D-02 -0.723645D-01  0.000000D+00
     36  0.000000D+00  0.000000D+00  0.000000D+00  0.000000D+00  0.000000D+00
               31            32            33            34            35 
     31  0.945638D+00
     32  0.532919D-01  0.970912D-01
     33  0.331925D+00 -0.133359D-01  0.258070D+00
     34  0.148640D+00 -0.666795D-02  0.124174D+00  0.217730D+00
     35 -0.446921D-01  0.000000D+00  0.000000D+00  0.000000D+00  0.656350D-01
     36  0.000000D+00  0.000000D+00  0.000000D+00  0.000000D+00  0.000000D+00
               36 
     36  0.788169D-02
 Leave Link  716 at Fri Sep 19 15:18:47 2025, MaxMem=   268435456 cpu:               0.7 elap:               0.2
 (Enter /apps/eb/gaussian/16-AVX2/g16/l103.exe)

 GradGradGradGradGradGradGradGradGradGradGradGradGradGradGradGradGradGrad
 Berny optimization.
 Search for a local minimum.
 Step number   1 out of a maximum of   46
 All quantities printed in internal units (Hartrees-Bohrs-Radians)
 Second derivative matrix not updated -- first step.
 ITU=  0
     Eigenvalues ---    0.00788   0.03611   0.05153   0.06232   0.08563
     Eigenvalues ---    0.10814   0.16000   0.16488   0.17085   0.20204
     Eigenvalues ---    0.22415   0.25000   0.27705   0.31456   0.31785
     Eigenvalues ---    0.32749   0.33320   0.34084   0.34766   0.34813
     Eigenvalues ---    0.34813   0.37903   0.39820   0.41532   0.45518
     Eigenvalues ---    0.46510   0.51362   0.52445   0.53953   0.57246
     Eigenvalues ---    0.59860   1.62397   2.08296   2.25576  11.42309
     Eigenvalues --- 1000.00000
 RFO step:  Lambda=-3.56311197D-05 EMin= 7.88169388D-03
 Linear search not attempted -- first point.
 Variable       Old X    -DE/DX   Delta X   Delta X   Delta X     New X
                                 (Linear)    (Quad)   (Total)
    R1        2.78489  -0.00005   0.00000  -0.00005  -0.00005   2.78484
    R2        2.57475  -0.00002   0.00000  -0.00004  -0.00004   2.57471
    R3        2.66754  -0.00000   0.00000  -0.00003  -0.00003   2.66751
    R4        2.05980  -0.00003   0.00000  -0.00009  -0.00009   2.05971
    R6        2.60348   0.00006   0.00000   0.00008   0.00008   2.60356
    R7        2.06056  -0.00002   0.00000  -0.00006  -0.00006   2.06050
    R8        2.84668  -0.00001   0.00000  -0.00005  -0.00005   2.84663
    R9        2.05980  -0.00002   0.00000  -0.00007  -0.00007   2.05973
   R10        2.09495   0.00001   0.00000   0.00004   0.00004   2.09499
   R11        2.08493  -0.00003   0.00000  -0.00009  -0.00009   2.08485
   R12        2.71799   0.00376   0.00000   0.00945   0.00945   2.72744
   R13        1.82774   0.00002   0.00000   0.00004   0.00004   1.82779
    A2        2.13198   0.00003   0.00000   0.00005   0.00005   2.13203
    A3        1.89070   0.00003   0.00000  -0.00002  -0.00002   1.89069
    A4        2.15835   0.00005   0.00000   0.00012   0.00012   2.15847
    A5        0.82416  -0.00009   0.00000  -0.00003  -0.00003   0.82413
    A6        1.92569   0.00008   0.00000   0.00002   0.00002   1.92571
    A7        2.16936  -0.00000   0.00000  -0.00002  -0.00002   2.16934
[...]
 Alpha virt. eigenvalues --    2.19049   2.21943   2.26331   2.28390   2.29786
 Alpha virt. eigenvalues --    2.41052   2.43012   2.51141   2.54654   2.55361
 Alpha virt. eigenvalues --    2.56918   2.59206   2.60199   2.66907   2.67598
 Alpha virt. eigenvalues --    2.75521   2.77077   2.81416   2.87477   2.92581
 Alpha virt. eigenvalues --    3.02251   3.03612   3.06049   3.12245   3.19416
 Alpha virt. eigenvalues --    3.26891   3.28382   3.44722   3.53106   3.66625
 Alpha virt. eigenvalues --    3.93355
  Beta  occ. eigenvalues --  -19.31947 -19.30255 -10.35598 -10.31426 -10.30651
  Beta  occ. eigenvalues --  -10.30554 -10.29488  -1.21915  -1.02198  -0.95510
  Beta  occ. eigenvalues --   -0.82048  -0.79614  -0.66475  -0.64028  -0.62289
  Beta  occ. eigenvalues --   -0.58657  -0.56945  -0.53321  -0.49455  -0.48695
  Beta  occ. eigenvalues --   -0.47421  -0.45376  -0.41274  -0.38488  -0.36374
  Beta  occ. eigenvalues --   -0.33739
  Beta virt. eigenvalues --    0.01090   0.09784   0.13153   0.15526   0.16433
  Beta virt. eigenvalues --    0.17410   0.19223   0.20883   0.21720   0.23534
  Beta virt. eigenvalues --    0.26446   0.30516   0.32369   0.38307   0.41893
  Beta virt. eigenvalues --    0.47253   0.48455   0.50185   0.54790   0.55212
  Beta virt. eigenvalues --    0.58121   0.59217   0.62365   0.63815   0.67416
  Beta virt. eigenvalues --    0.69369   0.69938   0.70429   0.71687   0.72512
  Beta virt. eigenvalues --    0.75288   0.76569   0.77678   0.78318   0.79718
  Beta virt. eigenvalues --    0.82389   0.83364   0.86156   0.90391   0.95496
  Beta virt. eigenvalues --    1.01922   1.03913   1.06473   1.12247   1.14024
  Beta virt. eigenvalues --    1.16158   1.17699   1.27270   1.28279   1.33810
  Beta virt. eigenvalues --    1.35051   1.39387   1.44298   1.51143   1.54240
  Beta virt. eigenvalues --    1.61455   1.63470   1.65110   1.67967   1.73559
  Beta virt. eigenvalues --    1.77076   1.77338   1.80957   1.84168   1.87168
  Beta virt. eigenvalues --    1.88105   1.90465   1.91738   1.93760   1.98320
  Beta virt. eigenvalues --    2.00183   2.05453   2.09116   2.11302   2.15874
  Beta virt. eigenvalues --    2.17820   2.19343   2.22939   2.27148   2.28609
  Beta virt. eigenvalues --    2.30859   2.42411   2.43872   2.51830   2.55320
  Beta virt. eigenvalues --    2.55876   2.57264   2.60012   2.61019   2.67607
  Beta virt. eigenvalues --    2.68094   2.76032   2.77614   2.82244   2.88240
  Beta virt. eigenvalues --    2.93034   3.02443   3.03887   3.06409   3.12634
  Beta virt. eigenvalues --    3.19727   3.27183   3.28716   3.44969   3.53458
  Beta virt. eigenvalues --    3.66704   3.93585
          Condensed to atoms (all electrons):
               1          2          3          4          5          6
     1  C    5.110171  -0.018587   0.322321   0.013600  -0.047026   0.326594
     2  C   -0.018587   5.668048  -0.035295   0.283305   0.424674  -0.067393
     3  O    0.322321  -0.035295   7.903731   0.003858   0.001633  -0.016379
     4  C    0.013600   0.283305   0.003858   4.897576  -0.038111   0.020074
     5  H   -0.047026   0.424674   0.001633  -0.038111   0.609523  -0.005794
     6  H    0.326594  -0.067393  -0.016379   0.020074  -0.005794   0.696266
     7  C   -0.058194   0.015921   0.004062   0.460643   0.006412  -0.012302
     8  H    0.005769  -0.053975  -0.000069   0.440206  -0.005138  -0.001250
     9  C    0.367034  -0.150875  -0.042679  -0.030597   0.010457  -0.013579
    10  H    0.005389   0.009543  -0.000069  -0.044031  -0.000203  -0.000486
    11  H   -0.007684  -0.006074  -0.005620   0.003475  -0.000235   0.006798
    12  H   -0.023008   0.015084   0.002757  -0.000625  -0.000248  -0.010085
    13  O   -0.064101   0.001572   0.096847  -0.000413   0.000214   0.007729
    14  H   -0.003843   0.008545  -0.017973  -0.000763   0.000166  -0.001255
               7          8          9         10         11         12
     1  C   -0.058194   0.005769   0.367034   0.005389  -0.007684  -0.023008
     2  C    0.015921  -0.053975  -0.150875   0.009543  -0.006074   0.015084
     3  O    0.004062  -0.000069  -0.042679  -0.000069  -0.005620   0.002757
     4  C    0.460643   0.440206  -0.030597  -0.044031   0.003475  -0.000625
     5  H    0.006412  -0.005138   0.010457  -0.000203  -0.000235  -0.000248
     6  H   -0.012302  -0.001250  -0.013579  -0.000486   0.006798  -0.010085
     7  C    5.126559  -0.056416   0.283619   0.420925  -0.019140  -0.019305
     8  H   -0.056416   0.642855   0.010421  -0.006491  -0.000298  -0.000184
     9  C    0.283619   0.010421   4.796245  -0.040263   0.351507   0.373608
    10  H    0.420925  -0.006491  -0.040263   0.628328  -0.000795  -0.001702
    11  H   -0.019140  -0.000298   0.351507  -0.000795   0.630284  -0.027428
    12  H   -0.019305  -0.000184   0.373608  -0.001702  -0.027428   0.635118
    13  O   -0.000401  -0.000019  -0.002722  -0.000008   0.009519  -0.000290
    14  H    0.000255   0.000006  -0.001063   0.000002  -0.000415   0.000021
              13         14
     1  C   -0.064101  -0.003843
     2  C    0.001572   0.008545
     3  O    0.096847  -0.017973
     4  C   -0.000413  -0.000763
     5  H    0.000214   0.000166
     6  H    0.007729  -0.001255
     7  C   -0.000401   0.000255
     8  H   -0.000019   0.000006
     9  C   -0.002722  -0.001063
    10  H   -0.000008   0.000002
    11  H    0.009519  -0.000415
    12  H   -0.000290   0.000021
    13  O    7.818593   0.308306
    14  H    0.308306   0.512765
          Atomic-Atomic Spin Densities.
               1          2          3          4          5          6
     1  C    0.359037  -0.264254  -0.013628   0.022797  -0.001144   0.090297
     2  C   -0.264254   0.932931   0.010248  -0.026838   0.005331  -0.075277
     3  O   -0.013628   0.010248   0.016948  -0.001034   0.000211  -0.007709
     4  C    0.022797  -0.026838  -0.001034  -0.233639  -0.000290   0.006188
     5  H   -0.001144   0.005331   0.000211  -0.000290  -0.031493   0.000955
     6  H    0.090297  -0.075277  -0.007709   0.006188   0.000955  -0.038482
     7  C    0.026160  -0.062703   0.000124  -0.014891  -0.000153   0.009981
     8  H   -0.000497   0.001223   0.000007  -0.001499   0.000191  -0.000110
     9  C   -0.027989   0.033772   0.003222  -0.006338  -0.000339  -0.013582
    10  H   -0.000509   0.000418   0.000008  -0.000820   0.000009  -0.000058
    11  H   -0.000642  -0.003799  -0.002371   0.003560   0.000009   0.002313
    12  H   -0.015292   0.006632   0.000760  -0.001185   0.000007  -0.002291
    13  O   -0.002401   0.000571  -0.024269   0.000269   0.000030   0.001073
    14  H   -0.000319  -0.000311   0.000946  -0.000000  -0.000039   0.000028
               7          8          9         10         11         12
     1  C    0.026160  -0.000497  -0.027989  -0.000509  -0.000642  -0.015292
     2  C   -0.062703   0.001223   0.033772   0.000418  -0.003799   0.006632
     3  O    0.000124   0.000007   0.003222   0.000008  -0.002371   0.000760
     4  C   -0.014891  -0.001499  -0.006338  -0.000820   0.003560  -0.001185
     5  H   -0.000153   0.000191  -0.000339   0.000009   0.000009   0.000007
     6  H    0.009981  -0.000110  -0.013582  -0.000058   0.002313  -0.002291
     7  C    0.642950  -0.000562  -0.037414   0.004510  -0.016861  -0.015582
     8  H   -0.000562   0.009621   0.000257   0.000267  -0.000084   0.000035
     9  C   -0.037414   0.000257  -0.029622   0.000655  -0.005765   0.023460
    10  H    0.004510   0.000267   0.000655  -0.028321  -0.000748   0.000616
    11  H   -0.016861  -0.000084  -0.005765  -0.000748   0.091543  -0.016285
    12  H   -0.015582   0.000035   0.023460   0.000616  -0.016285   0.047780
    13  O   -0.000133  -0.000002  -0.001421  -0.000002   0.001805  -0.000246
    14  H    0.000004   0.000000   0.000082   0.000000  -0.000058   0.000004
              13         14
     1  C   -0.002401  -0.000319
     2  C    0.000571  -0.000311
     3  O   -0.024269   0.000946
     4  C    0.000269  -0.000000
     5  H    0.000030  -0.000039
     6  H    0.001073   0.000028
     7  C   -0.000133   0.000004
     8  H   -0.000002   0.000000
     9  C   -0.001421   0.000082
    10  H   -0.000002   0.000000
    11  H    0.001805  -0.000058
    12  H   -0.000246   0.000004
    13  O    0.080122   0.000066
    14  H    0.000066  -0.002077
 Mulliken charges and spin densities:
               1          2
     1  C    0.071566   0.171613
     2  C   -0.094494   0.557943
     3  O   -0.217124  -0.016540
     4  C   -0.008196  -0.253721
     5  H    0.043675  -0.026715
     6  H    0.071063  -0.026673
     7  C   -0.152638   0.535429
     8  H    0.024582   0.008846
     9  C    0.088889  -0.061024
    10  H    0.029861  -0.023976
    11  H    0.066105   0.052616
    12  H    0.056286   0.028414
    13  O   -0.174825   0.055461
    14  H    0.195249  -0.001675
 Sum of Mulliken charges =  -0.00000   1.00000
 Mulliken charges and spin densities with hydrogens summed into heavy atoms:
               1          2
     1  C    0.142629   0.144941
     2  C   -0.050819   0.531229
     3  O   -0.217124  -0.016540
     4  C    0.016386  -0.244874
     7  C   -0.122776   0.511453
     9  C    0.211280   0.020006
    13  O    0.020424   0.053786
 Electronic spatial extent (au):  <R**2>=            721.4846
 Charge=             -0.0000 electrons
 Dipole moment (field-independent basis, Debye):
    X=             -0.9670    Y=              1.7639    Z=              0.0946  Tot=              2.0138
 Quadrupole moment (field-independent basis, Debye-Ang):
   XX=            -41.8657   YY=            -36.7252   ZZ=            -42.9976
   XY=              4.6236   XZ=             -1.1081   YZ=             -0.4123
 Traceless Quadrupole moment (field-independent basis, Debye-Ang):
   XX=             -1.3362   YY=              3.8043   ZZ=             -2.4681
   XY=              4.6236   XZ=             -1.1081   YZ=             -0.4123
 Octapole moment (field-independent basis, Debye-Ang**2):
  XXX=             14.6460  YYY=              3.5645  ZZZ=             -0.1530  XYY=              7.5571
  XXY=             11.4613  XXZ=             -8.0662  XZZ=              7.0513  YZZ=              0.5541
  YYZ=             -1.3301  XYZ=             -2.7360
 Hexadecapole moment (field-independent basis, Debye-Ang**3):
 XXXX=           -552.9830 YYYY=           -213.2979 ZZZZ=           -104.8480 XXXY=             28.5703
 XXXZ=             -4.3322 YYYX=              5.9886 YYYZ=             -2.0355 ZZZX=             -9.1269
 ZZZY=             -0.5166 XXYY=           -117.9143 XXZZ=           -118.8358 YYZZ=            -53.9281
 XXYZ=             -9.7635 YYXZ=             -2.9676 ZZXY=              4.7760
 N-N= 2.999230522888D+02 E-N=-1.404325587232D+03  KE= 3.416774732377D+02
                          Isotropic Fermi Contact Couplings
        Atom                 a.u.       MegaHertz       Gauss      10(-4) cm-1
     1  C(13)              0.05320      59.80382      21.33949      19.94841
     2  C(13)              0.09837     110.58436      39.45925      36.88697
     3  O(17)              0.14399     -87.28339     -31.14488     -29.11460
     4  C(13)             -0.06324     -71.09207     -25.36742     -23.71376
     5  H(1)              -0.00830     -37.10432     -13.23974     -12.37667
     6  H(1)              -0.01191     -53.24225     -18.99816     -17.75970
     7  C(13)              0.09270     104.21353      37.18598      34.76189
     8  H(1)               0.00256      11.44369       4.08339       3.81721
     9  C(13)             -0.01931     -21.70417      -7.74459      -7.23973
    10  H(1)              -0.00732     -32.73058     -11.67908     -10.91775
    11  H(1)               0.02265     101.26441      36.13366      33.77817
    12  H(1)               0.01559      69.68930      24.86688      23.24585
    13  O(17)              0.03159     -19.15142      -6.83370      -6.38823
    14  H(1)              -0.00079      -3.52860      -1.25909      -1.17701
 --------------------------------------------------------
       Center         ----  Spin Dipole Couplings  ----
                      3XX-RR        3YY-RR        3ZZ-RR
 --------------------------------------------------------
     1   Atom       -0.120952     -0.123243      0.244195
     2   Atom       -0.254114     -0.297897      0.552010
     3   Atom        0.024060      0.051020     -0.075080
     4   Atom        0.078005      0.102792     -0.180796
     5   Atom       -0.025905      0.029827     -0.003922
     6   Atom       -0.018028      0.024585     -0.006558
     7   Atom       -0.210742     -0.279636      0.490379
     8   Atom        0.003342      0.002908     -0.006250
     9   Atom       -0.010435      0.003088      0.007346
    10   Atom        0.019202     -0.019545      0.000343
    11   Atom        0.001935      0.001184     -0.003119
    12   Atom       -0.002731      0.007736     -0.005005
    13   Atom       -0.060255     -0.119234      0.179488
    14   Atom       -0.000272      0.006350     -0.006078
 --------------------------------------------------------
                        XY            XZ            YZ
 --------------------------------------------------------
     1   Atom       -0.003397      0.003270      0.029339
     2   Atom        0.015709     -0.224604     -0.043029
     3   Atom       -0.001060      0.035340     -0.033345
     4   Atom        0.006662      0.081247      0.004505
     5   Atom        0.030537     -0.008129      0.005689
     6   Atom       -0.052339      0.011640     -0.019535
     7   Atom        0.007412     -0.202748     -0.007038
     8   Atom        0.007172      0.003703      0.002158
     9   Atom        0.003458      0.008568      0.009099
    10   Atom        0.031754      0.006979      0.008451
    11   Atom       -0.004434     -0.003005      0.004476
    12   Atom       -0.000130      0.001631     -0.005955
    13   Atom       -0.002898     -0.126357      0.008480
    14   Atom        0.005533     -0.004607     -0.000043
 --------------------------------------------------------


 ---------------------------------------------------------------------------------
              Anisotropic Spin Dipole Couplings in Principal Axis System
 ---------------------------------------------------------------------------------

       Atom             a.u.   MegaHertz   Gauss  10(-4) cm-1        Axes

              Baa    -0.1276   -17.120    -6.109    -5.711  0.4831  0.8725 -0.0731
     1 C(13)  Bbb    -0.1190   -15.964    -5.696    -5.325  0.8755 -0.4822  0.0311
              Bcc     0.2465    33.084    11.805    11.036  0.0081  0.0790  0.9968
 
              Baa    -0.3139   -42.118   -15.029   -14.049  0.9256 -0.3043  0.2250
     2 C(13)  Bbb    -0.2988   -40.093   -14.306   -13.374  0.2829  0.9513  0.1228
              Bcc     0.6126    82.212    29.335    27.423 -0.2514 -0.0500  0.9666
 
              Baa    -0.0933     6.750     2.409     2.252 -0.2799  0.2142  0.9358
     3 O(17)  Bbb     0.0310    -2.242    -0.800    -0.748  0.9120  0.3637  0.1896
              Bcc     0.0623    -4.508    -1.609    -1.504 -0.2997  0.9066 -0.2971
 
              Baa    -0.2042   -27.403    -9.778    -9.141 -0.2765 -0.0081  0.9610
     4 C(13)  Bbb     0.0944    12.671     4.521     4.227  0.7117 -0.6737  0.1991
              Bcc     0.1098    14.732     5.257     4.914  0.6458  0.7389  0.1920
 
              Baa    -0.0419   -22.344    -7.973    -7.453  0.8839 -0.3961  0.2487
     5 H(1)   Bbb    -0.0015    -0.802    -0.286    -0.268 -0.2443  0.0624  0.9677
              Bcc     0.0434    23.146     8.259     7.721  0.3989  0.9161  0.0416
 
              Baa    -0.0533   -28.421   -10.141    -9.480  0.8261  0.5628  0.0295
     6 H(1)   Bbb    -0.0135    -7.229    -2.579    -2.411 -0.1898  0.2286  0.9548
              Bcc     0.0668    35.650    12.721    11.892 -0.5306  0.7944 -0.2957
 
              Baa    -0.2815   -37.771   -13.478   -12.599 -0.3026  0.9505 -0.0708
     7 C(13)  Bbb    -0.2634   -35.347   -12.613   -11.790  0.9172  0.3106  0.2496
              Bcc     0.5449    73.118    26.090    24.389 -0.2592 -0.0106  0.9658
 
              Baa    -0.0075    -4.015    -1.433    -1.339 -0.3497  0.0469  0.9357
     8 H(1)   Bbb    -0.0038    -2.009    -0.717    -0.670 -0.6124  0.7443 -0.2662
              Bcc     0.0113     6.024     2.150     2.009  0.7089  0.6661  0.2316
 
              Baa    -0.0139    -1.865    -0.665    -0.622  0.9250  0.0150 -0.3796
     9 C(13)  Bbb    -0.0035    -0.472    -0.169    -0.158 -0.2248  0.8270 -0.5152
              Bcc     0.0174     2.337     0.834     0.779  0.3062  0.5619  0.7684
 
              Baa    -0.0378   -20.165    -7.195    -6.726 -0.4739  0.8741 -0.1070
    10 H(1)   Bbb    -0.0019    -1.014    -0.362    -0.338 -0.2727 -0.0301  0.9616
              Bcc     0.0397    21.180     7.557     7.065  0.8373  0.4849  0.2526
 
              Baa    -0.0059    -3.169    -1.131    -1.057  0.0367 -0.5152  0.8563
    11 H(1)   Bbb    -0.0025    -1.322    -0.472    -0.441  0.7702  0.5606  0.3042
              Bcc     0.0084     4.492     1.603     1.498 -0.6367  0.6484  0.4174
 
              Baa    -0.0078    -4.153    -1.482    -1.385 -0.2806  0.3418  0.8969
    12 H(1)   Bbb    -0.0023    -1.250    -0.446    -0.417  0.9582  0.1547  0.2408
              Bcc     0.0101     5.403     1.928     1.802 -0.0564  0.9270 -0.3709
 
              Baa    -0.1196     8.651     3.087     2.886 -0.1148  0.9904 -0.0766
    13 O(17)  Bbb    -0.1145     8.282     2.955     2.763  0.9116  0.1357  0.3880
              Bcc     0.2340   -16.933    -6.042    -5.648 -0.3946  0.0253  0.9185
 
              Baa    -0.0091    -4.876    -1.740    -1.626  0.5442 -0.1921  0.8167
    14 H(1)   Bbb    -0.0007    -0.379    -0.135    -0.127  0.6526 -0.5148 -0.5560
              Bcc     0.0098     5.255     1.875     1.753  0.5272  0.8355 -0.1548
 

 ---------------------------------------------------------------------------------

 No NMR shielding tensors so no spin-rotation constants.
 Leave Link  601 at Fri Sep 19 15:25:57 2025, MaxMem=   268435456 cpu:               6.0 elap:               1.5
 (Enter /apps/eb/gaussian/16-AVX2/g16/l9999.exe)
 Unable to Open any file for archive entry.
 1\1\GINC-C4-4\POpt\UwB97XD\def2SVP\C5H7O2(2)\AVCOPAN\19-Sep-2025\1\\#P
  wb97xd/def2svp # SCF=(xqc) # POpt=() # int=ultrafine\\comment:\\0,2\C
 \C,1,R1\O,1,R2,2,A2\C,2,R3,1,A3,3,D3,0\H,2,R4,1,A4,4,D4,0\H,2,R5,1,A5,
 4,D5,0\C,4,R6,2,A6,1,D6,0\H,4,R7,2,A7,7,D7,0\C,7,R8,4,A8,2,D8,0\H,7,R9
 ,4,A9,9,D9,0\H,9,R10,7,A10,4,D10,0\H,9,R11,7,A11,11,D11,0\O,3,R12,1,A1
 2,9,D12,0\H,13,R13,3,A13,1,D13,0\\R1=1.47382738\R2=1.36075691\R3=1.411
 84193\R4=1.08988941\R6=1.37753814\R7=1.09036548\R8=1.50631411\R9=1.089
 96626\R10=1.10859783\R11=1.10325935\R12=1.44855859\R13=0.96710862\A2=1
 22.2429071\A3=108.32559154\A4=123.66075353\A5=47.27279206\A6=110.34312
 68\A7=124.28550905\A8=110.80756375\A9=125.48296749\A10=112.03618054\A1
 1=113.87658979\A12=108.57633836\A13=100.86456918\D3=159.62946735\D4=17
 6.57926263\D5=99.03354842\D6=-4.51412453\D7=176.91583958\D8=358.122312
 01\D9=180.43557839\D10=251.3278888\D11=239.1230459\D12=75.41505766\D13
 =102.67653439\R5=1.3424\\Version=ES64L-G16RevC.01\State=2-A\HF=-344.59
 372\S2=0.7823\S2-1=0.\S2A=0.750319\RMSD=7.090e-09\RMSF=1.398e-02\Dipol
 e=0.0040597,-0.2282218,0.7586865\Quadrupole=2.9922294,-1.6726798,-1.31
 95497,-0.4942544,3.3649104,-0.6731429\PG=C01 [X(C5H7O2)]\\@
 The archive entry for this job was punched.


 A MAN SHOULD NEVER BE ASHAMED TO OWN HE HAS BEEN IN THE WRONG
 WHICH IS BUT SAYING IN OTHER WORDS,
 THAT HE IS WISER TODAY THAN HE WAS YESTERDAY.

                          -- JONATHAN SWIFT
 Job cpu time:       0 days  0 hours 33 minutes 17.8 seconds.
 Elapsed time:       0 days  0 hours  8 minutes 25.7 seconds.
 File lengths (MBytes):  RWF=     24 Int=      0 D2E=      0 Chk=      3 Scr=      1
 Normal termination of Gaussian 16 at Fri Sep 19 15:25:57 2025.
