 Entering Gaussian System, Link 0=g16
 Input=geom.inp
 Output=run.out
 Initial command:
 /gpfs/fs1/soft/bebop/software/custom-built/gaussian/16-c.02/g16/l1.exe "/scratch/Gau-612070.inp" -scrdir="/scratch/"
 Default CPUs for threads: 0-35
 Default is to use a total of  36 processors:
                               36 via shared-memory
                                1 via Linda
 Entering Link 1 = /gpfs/fs1/soft/bebop/software/custom-built/gaussian/16-c.02/g16/l1.exe PID=    612071.
  
 Copyright (c) 1988-2019, Gaussian, Inc.  All Rights Reserved.
  
 This is part of the Gaussian(R) 16 program.  It is based on
 the Gaussian(R) 09 system (copyright 2009, Gaussian, Inc.),
 the Gaussian(R) 03 system (copyright 2003, Gaussian, Inc.),
 the Gaussian(R) 98 system (copyright 1998, Gaussian, Inc.),
 the Gaussian(R) 94 system (copyright 1995, Gaussian, Inc.),
 the Gaussian 92(TM) system (copyright 1992, Gaussian, Inc.),
 the Gaussian 90(TM) system (copyright 1990, Gaussian, Inc.),
 the Gaussian 88(TM) system (copyright 1988, Gaussian, Inc.),
 the Gaussian 86(TM) system (copyright 1986, Carnegie Mellon
 University), and the Gaussian 82(TM) system (copyright 1983,
 Carnegie Mellon University). Gaussian is a federally registered
 trademark of Gaussian, Inc.
  
 This software contains proprietary and confidential information,
 including trade secrets, belonging to Gaussian, Inc.
  
 This software is provided under written license and may be
 used, copied, transmitted, or stored only in accord with that
 written license.
  
 The following legend is applicable only to US Government
 contracts under FAR:
  
                    RESTRICTED RIGHTS LEGEND
  
 Use, reproduction and disclosure by the US Government is
 subject to restrictions as set forth in subparagraphs (a)
 and (c) of the Commercial Computer Software - Restricted
 Rights clause in FAR 52.227-19.
  
 Gaussian, Inc.
 340 Quinnipiac St., Bldg. 40, Wallingford CT 06492
  
  
 ---------------------------------------------------------------
 Warning -- This program may not be used in any manner that
 competes with the business of Gaussian, Inc. or will provide
 assistance to any competitor of Gaussian, Inc.  The licensee
 of this program is prohibited from giving any competitor of
 Gaussian, Inc. access to this program.  By using this program,
 the user acknowledges that Gaussian, Inc. is engaged in the
 business of creating and licensing software in the field of
 computational chemistry and represents and warrants to the
 licensee that it is not a competitor of Gaussian, Inc. and that
 it will not use this program in any manner prohibited above.
 ---------------------------------------------------------------
  

 Cite this work as:
 Gaussian 16, Revision C.01,
 M. J. Frisch, G. W. Trucks, H. B. Schlegel, G. E. Scuseria, 
 M. A. Robb, J. R. Cheeseman, G. Scalmani, V. Barone, 
 G. A. Petersson, H. Nakatsuji, X. Li, M. Caricato, A. V. Marenich, 
 J. Bloino, B. G. Janesko, R. Gomperts, B. Mennucci, H. P. Hratchian, 
 J. V. Ortiz, A. F. Izmaylov, J. L. Sonnenberg, D. Williams-Young, 
 F. Ding, F. Lipparini, F. Egidi, J. Goings, B. Peng, A. Petrone, 
 T. Henderson, D. Ranasinghe, V. G. Zakrzewski, J. Gao, N. Rega, 
 G. Zheng, W. Liang, M. Hada, M. Ehara, K. Toyota, R. Fukuda, 
 J. Hasegawa, M. Ishida, T. Nakajima, Y. Honda, O. Kitao, H. Nakai, 
 T. Vreven, K. Throssell, J. A. Montgomery, Jr., J. E. Peralta, 
 F. Ogliaro, M. J. Bearpark, J. J. Heyd, E. N. Brothers, K. N. Kudin, 
 V. N. Staroverov, T. A. Keith, R. Kobayashi, J. Normand, 
 K. Raghavachari, A. P. Rendell, J. C. Burant, S. S. Iyengar, 
 J. Tomasi, M. Cossi, J. M. Millam, M. Klene, C. Adamo, R. Cammi, 
 J. W. Ochterski, R. L. Martin, K. Morokuma, O. Farkas, 
 J. B. Foresman, and D. J. Fox, Gaussian, Inc., Wallingford CT, 2019.
 
 ******************************************
 Gaussian 16:  ES64L-G16RevC.01  3-Jul-2019
                14-May-2025 
 ******************************************
 %mem=28GB
 %NProcShared=6
 Will use up to    6 processors via shared memory.
 ----------------------------------------------------------------------
 #P wb97xd/def2svp # SCF=(xqc) # POpt=(CALCFC,TS,NOEIGEN,MAXCYCLES=60) 
 # int=ultrafine
 ----------------------------------------------------------------------
 1/5=1,6=60,10=4,11=1,26=4,38=1/1,3;
 2/12=2,17=6,18=5,29=3,40=1/2;
 3/5=43,7=101,11=2,25=1,30=1,71=2,74=-58,75=-5,140=1/1,2,3;
 4//1;
 5/5=2,8=3,13=1,38=5/2,8;
 8/6=4,10=90,11=11/1;
 11/6=1,8=1,9=11,15=111,16=1/1,2,10;
 10/6=1,13=1/2;
 6/7=2,8=2,9=2,10=2,28=1/1;
 7/10=1,25=1/1,2,3,16;
 1/5=1,6=60,10=4,11=1,26=4/3(2);
 2/29=3/2;
 99//99;
 2/29=3/2;
 3/5=43,7=101,11=2,25=1,30=1,71=1,74=-58,75=-5/1,2,3;
 4/5=5,16=3,69=1/1;
 5/5=2,8=3,13=1,38=5/2,8;
 7//1,2,3,16;
 1/5=1,6=60,11=1,26=4/3(-5);
 2/29=3/2;
 6/7=2,8=2,9=2,10=2,19=2,28=1/1;
 99/9=1/99;
 Leave Link    1 at Wed May 14 13:26:31 2025, MaxMem=  3758096384 cpu:               0.9 elap:               0.1
 (Enter /gpfs/fs1/soft/bebop/software/custom-built/gaussian/16-c.02/g16/l101.exe)
 --------
 comment:
 --------
 Symbolic Z-matrix:
 Charge =  0 Multiplicity = 2
 C
 C                    1    R1
 H                    1    R2       2    A2
 C                    2    R3       1    A3       3    D3       0
 H                    2    R4       1    A4       4    D4       0
 H                    2    R5       1    A5       4    D5       0
 C                    4    R6       2    A6       1    D6       0
 H                    4    R7       2    A7       7    D7       0
 H                    4    R8       2    A8       7    D8       0
 C                    7    R9       4    A9       2    D9       0
 O                    7    R10      4    A10      10   D10      0
 H                    7    R11      4    A11      10   D11      0
 H                    10   R12      7    A12      4    D12      0
 H                    10   R13      7    A13      13   D13      0
 O                    11   R14      7    A14      10   D14      0
 H                    15   R15      11   A15      7    D15      0
       Variables:
  R1                    1.5033                   
  R2                    1.09327                  
  R3                    1.54949                  
  R4                    1.10059                  
  R5                    1.1036                   
  R6                    1.50563                  
  R7                    1.1015                   
  R8                    1.10245                  
  R9                    2.21287                  
  R10                   1.35696                  
  R11                   1.10186                  
  R12                   1.09434                  
  R13                   1.09459                  
  R14                   1.46971                  
  R15                   0.96694                  
  A2                  119.24584                  
  A3                  107.37761                  
  A4                  108.74694                  
  A5                  113.42674                  
  A6                  109.72408                  
  A7                  111.01434                  
  A8                  111.02483                  
  A9                   89.20652                  
  A10                 117.31467                  
  A11                 118.55034                  
  A12                 119.85499                  
  A13                  80.38803                  
  A14                 108.17689                  
  A15                  99.65101                  
  D3                  139.14568                  
  D4                  240.50335                  
  D5                  122.6389                   
  D6                  334.57783                  
  D7                  119.54565                  
  D8                  237.99339                  
  D9                   39.73151                  
  D10                 257.09916                  
  D11                 111.67397                  
  D12                 187.54719                  
  D13                 247.19166                  
  D14                 191.83612                  
  D15                 247.63123                  
 
 ITRead=  0  0  0  0  0  0  0  0  0  0  0  0  0  0  0  0
 MicOpt= -1 -1 -1 -1 -1 -1 -1 -1 -1 -1 -1 -1 -1 -1 -1 -1
 NAtoms=     16 NQM=       16 NQMF=       0 NMMI=      0 NMMIF=      0
                NMic=       0 NMicF=      0.
                    Isotopes and Nuclear Properties:
 (Nuclear quadrupole moments (NQMom) in fm**2, nuclear magnetic moments (NMagM)
  in nuclear magnetons)

  Atom         1           2           3           4           5           6           7           8           9          10
 IAtWgt=          12          12           1          12           1           1          12           1           1          12
 AtmWgt=  12.0000000  12.0000000   1.0078250  12.0000000   1.0078250   1.0078250  12.0000000   1.0078250   1.0078250  12.0000000
 NucSpn=           0           0           1           0           1           1           0           1           1           0
 AtZEff=  -0.0000000  -0.0000000  -0.0000000  -0.0000000  -0.0000000  -0.0000000  -0.0000000  -0.0000000  -0.0000000  -0.0000000
 NQMom=    0.0000000   0.0000000   0.0000000   0.0000000   0.0000000   0.0000000   0.0000000   0.0000000   0.0000000   0.0000000
 NMagM=    0.0000000   0.0000000   2.7928460   0.0000000   2.7928460   2.7928460   0.0000000   2.7928460   2.7928460   0.0000000
 AtZNuc=   6.0000000   6.0000000   1.0000000   6.0000000   1.0000000   1.0000000   6.0000000   1.0000000   1.0000000   6.0000000

  Atom        11          12          13          14          15          16
 IAtWgt=          16           1           1           1          16           1
 AtmWgt=  15.9949146   1.0078250   1.0078250   1.0078250  15.9949146   1.0078250
 NucSpn=           0           1           1           1           0           1
 AtZEff=  -0.0000000  -0.0000000  -0.0000000  -0.0000000  -0.0000000  -0.0000000
 NQMom=    0.0000000   0.0000000   0.0000000   0.0000000   0.0000000   0.0000000
 NMagM=    0.0000000   2.7928460   2.7928460   2.7928460   0.0000000   2.7928460
 AtZNuc=   8.0000000   1.0000000   1.0000000   1.0000000   8.0000000   1.0000000
 Leave Link  101 at Wed May 14 13:26:31 2025, MaxMem=  3758096384 cpu:               0.6 elap:               0.1
 (Enter /gpfs/fs1/soft/bebop/software/custom-built/gaussian/16-c.02/g16/l103.exe)

 GradGradGradGradGradGradGradGradGradGradGradGradGradGradGradGradGradGrad
 Berny optimization.
 Initialization pass.
                       ----------------------------
                       !    Initial Parameters    !
                       ! (Angstroms and Degrees)  !
 ----------------------                            ----------------------
 !      Name          Value   Derivative information (Atomic Units)     !
 ------------------------------------------------------------------------
 !       R1          1.5033   calculate D2E/DX2 analytically            !
 !       R2          1.0933   calculate D2E/DX2 analytically            !
 !       R3          1.5495   calculate D2E/DX2 analytically            !
 !       R4          1.1006   calculate D2E/DX2 analytically            !
 !       R5          1.1036   calculate D2E/DX2 analytically            !
 !       R6          1.5056   calculate D2E/DX2 analytically            !
 !       R7          1.1015   calculate D2E/DX2 analytically            !
 !       R8          1.1024   calculate D2E/DX2 analytically            !
 !       R9          2.2129   calculate D2E/DX2 analytically            !
 !       R10         1.357    calculate D2E/DX2 analytically            !
 !       R11         1.1019   calculate D2E/DX2 analytically            !
 !       R12         1.0943   calculate D2E/DX2 analytically            !
 !       R13         1.0946   calculate D2E/DX2 analytically            !
 !       R14         1.4697   calculate D2E/DX2 analytically            !
 !       R15         0.9669   calculate D2E/DX2 analytically            !
 !       A2        119.2458   calculate D2E/DX2 analytically            !
 !       A3        107.3776   calculate D2E/DX2 analytically            !
 !       A4        108.7469   calculate D2E/DX2 analytically            !
 !       A5        113.4267   calculate D2E/DX2 analytically            !
 !       A6        109.7241   calculate D2E/DX2 analytically            !
 !       A7        111.0143   calculate D2E/DX2 analytically            !
 !       A8        111.0248   calculate D2E/DX2 analytically            !
 !       A9         89.2065   calculate D2E/DX2 analytically            !
 !       A10       117.3147   calculate D2E/DX2 analytically            !
 !       A11       118.5503   calculate D2E/DX2 analytically            !
 !       A12       119.855    calculate D2E/DX2 analytically            !
 !       A13        80.388    calculate D2E/DX2 analytically            !
 !       A14       108.1769   calculate D2E/DX2 analytically            !
 !       A15        99.651    calculate D2E/DX2 analytically            !
 !       D3        139.1457   calculate D2E/DX2 analytically            !
 !       D4        240.5033   calculate D2E/DX2 analytically            !
 !       D5        122.6389   calculate D2E/DX2 analytically            !
 !       D6        334.5778   calculate D2E/DX2 analytically            !
 !       D7        119.5456   calculate D2E/DX2 analytically            !
 !       D8        237.9934   calculate D2E/DX2 analytically            !
 !       D9         39.7315   calculate D2E/DX2 analytically            !
 !       D10       257.0992   calculate D2E/DX2 analytically            !
 !       D11       111.674    calculate D2E/DX2 analytically            !
 !       D12       187.5472   calculate D2E/DX2 analytically            !
 !       D13       247.1917   calculate D2E/DX2 analytically            !
 !       D14       191.8361   calculate D2E/DX2 analytically            !
 !       D15       247.6312   calculate D2E/DX2 analytically            !
 ------------------------------------------------------------------------
 Trust Radius=3.00D-01 FncErr=1.00D-07 GrdErr=1.00D-06 EigMax=2.50D+02 EigMin=1.00D-04
 Number of steps in this run=     60 maximum allowed number of steps=    100.
 Search for a saddle point of order  1.
 GradGradGradGradGradGradGradGradGradGradGradGradGradGradGradGradGradGrad

 Leave Link  103 at Wed May 14 13:26:32 2025, MaxMem=  3758096384 cpu:               0.1 elap:               0.0
 (Enter /gpfs/fs1/soft/bebop/software/custom-built/gaussian/16-c.02/g16/l202.exe)
 ---------------------------------------------------------------------------------------------------
                            Z-MATRIX (ANGSTROMS AND DEGREES)
   CD    Cent   Atom    N1       Length/X        N2       Alpha/Y        N3        Beta/Z          J
 ---------------------------------------------------------------------------------------------------
      1      1  C 
      2      2  C        1   1.503302(     1)
      3      3  H        1   1.093274(     2)      2  119.246(    16)
      4      4  C        2   1.549486(     3)      1  107.378(    17)      3  139.146(    30)      0
      5      5  H        2   1.100591(     4)      1  108.747(    18)      4  240.503(    31)      0
      6      6  H        2   1.103595(     5)      1  113.427(    19)      4  122.639(    32)      0
      7      7  C        4   1.505628(     6)      2  109.724(    20)      1  334.578(    33)      0
      8      8  H        4   1.101500(     7)      2  111.014(    21)      7  119.546(    34)      0
      9      9  H        4   1.102446(     8)      2  111.025(    22)      7  237.993(    35)      0
     10     10  C        7   2.212869(     9)      4   89.207(    23)      2   39.732(    36)      0
     11     11  O        7   1.356956(    10)      4  117.315(    24)     10  257.099(    37)      0
     12     12  H        7   1.101857(    11)      4  118.550(    25)     10  111.674(    38)      0
     13     13  H       10   1.094343(    12)      7  119.855(    26)      4  187.547(    39)      0
     14     14  H       10   1.094591(    13)      7   80.388(    27)     13  247.192(    40)      0
     15     15  O       11   1.469706(    14)      7  108.177(    28)     10  191.836(    41)      0
     16     16  H       15   0.966938(    15)     11   99.651(    29)      7  247.631(    42)      0
 ---------------------------------------------------------------------------------------------------
                         Z-Matrix orientation:                         
 ---------------------------------------------------------------------
 Center     Atomic      Atomic             Coordinates (Angstroms)
 Number     Number       Type             X           Y           Z
 ---------------------------------------------------------------------
      1          6           0        0.000000    0.000000    0.000000
      2          6           0        0.000000    0.000000    1.503302
      3          1           0        0.953916    0.000000   -0.534128
      4          6           0       -1.118500    0.967315    1.966084
      5          1           0        0.981514    0.350448    1.857020
      6          1           0       -0.144699   -1.002233    1.942065
      7          6           0       -1.376477    1.994814    0.896219
      8          1           0       -2.057798    0.423739    2.154619
      9          1           0       -0.845722    1.463832    2.911838
     10          6           0       -1.143595    0.414184   -0.634847
     11          8           0       -0.359348    2.836728    0.583236
     12          1           0       -2.384777    2.432261    0.818373
     13          1           0       -1.123978    0.682014   -1.695728
     14          1           0       -2.134727    0.152354   -0.251139
     15          8           0       -0.203051    3.796524    1.685233
     16          1           0       -0.483664    4.605728    1.236441
 ---------------------------------------------------------------------
                    Distance matrix (angstroms):
                    1          2          3          4          5
     1  C    0.000000
     2  C    1.503302   0.000000
     3  H    1.093274   2.249683   0.000000
     4  C    2.460127   1.549486   3.388460   0.000000
     5  H    2.129485   1.100591   2.416849   2.191456   0.000000
     6  H    2.190211   1.103595   2.888418   2.197267   1.762196
     7  C    2.584024   2.498504   3.384658   1.505628   3.031040
     8  H    3.009397   2.199614   4.059475   1.101500   3.054727
     9  H    3.367024   2.200459   4.154056   1.102446   2.385594
    10  C    1.372002   2.459886   2.140384   2.659215   3.275600
    11  O    2.918273   3.003777   3.319667   2.446075   3.098713
    12  H    3.503254   3.474505   4.346495   2.250948   4.092023
    13  H    2.145685   3.458651   2.476308   3.672914   4.143073
    14  H    2.154842   2.767370   3.105320   2.571567   3.767564
    15  O    4.158706   3.806300   4.547277   2.986862   3.648033
    16  H    4.793271   4.638737   5.139483   3.764763   4.543047
                    6          7          8          9         10
     6  H    0.000000
     7  C    3.404902   0.000000
     8  H    2.395521   2.125099   0.000000
     9  H    2.741052   2.150898   1.767569   0.000000
    10  C    3.105561   2.212869   2.935470   3.710723   0.000000
    11  O    4.078003   1.356956   3.343126   2.746596   2.822674
    12  H    4.251633   1.101857   2.434467   2.772930   2.779391
    13  H    4.126647   2.916400   3.970379   4.681702   1.094343
    14  H    3.178589   2.299137   2.422239   3.658679   1.094591
    15  O    4.805979   2.290335   3.877639   2.712755   4.208042
    16  H    5.662334   2.780241   4.561796   3.579044   4.637486
                   11         12         13         14         15
    11  O    0.000000
    12  H    2.078761   0.000000
    13  H    3.228177   3.312655   0.000000
    14  H    3.324757   2.530683   1.840922   0.000000
    15  O    1.469706   2.715251   4.688195   4.556411   0.000000
    16  H    1.889840   2.917700   4.939954   4.977092   0.966938
                   16
    16  H    0.000000
 Stoichiometry    C5H9O2(2)
 Framework group  C1[X(C5H9O2)]
 Deg. of freedom    42
 Full point group                 C1      NOp   1
 Largest Abelian subgroup         C1      NOp   1
 Largest concise Abelian subgroup C1      NOp   1
                         Standard orientation:                         
 ---------------------------------------------------------------------
 Center     Atomic      Atomic             Coordinates (Angstroms)
 Number     Number       Type             X           Y           Z
 ---------------------------------------------------------------------
      1          6           0        1.689583   -0.309870   -0.678926
      2          6           0        1.255080    1.108639   -0.436120
      3          1           0        1.839975   -0.654118   -1.705631
      4          6           0        0.199977    1.081715    0.698313
      5          1           0        0.813253    1.506684   -1.362214
      6          1           0        2.088316    1.784682   -0.178040
      7          6           0       -0.473354   -0.264486    0.734164
      8          1           0        0.669781    1.257570    1.678956
      9          1           0       -0.549838    1.877990    0.560069
     10          6           0        1.481353   -1.218729    0.327556
     11          8           0       -1.193117   -0.629947   -0.356574
     12          1           0       -0.865411   -0.631747    1.696193
     13          1           0        1.531503   -2.292985    0.124960
     14          1           0        1.625245   -0.947864    1.378297
     15          8           0       -2.431106    0.161928   -0.375345
     16          1           0       -3.074877   -0.539672   -0.207161
 ---------------------------------------------------------------------
 Rotational constants (GHZ):           4.5188367           1.9225402           1.6975530
 Leave Link  202 at Wed May 14 13:26:32 2025, MaxMem=  3758096384 cpu:               0.1 elap:               0.0
 (Enter /gpfs/fs1/soft/bebop/software/custom-built/gaussian/16-c.02/g16/l301.exe)
 Standard basis: def2SVP (5D, 7F)
 Ernie: Thresh=  0.10000D-02 Tol=  0.10000D-05 Strict=F.
 There are   150 symmetry adapted cartesian basis functions of A   symmetry.
 There are   143 symmetry adapted basis functions of A   symmetry.
   143 basis functions,   238 primitive gaussians,   150 cartesian basis functions
    28 alpha electrons       27 beta electrons
       nuclear repulsion energy       312.7164228398 Hartrees.
 IExCor= 4639 DFT=T Ex+Corr=wB97XD ExCW=0 ScaHFX=  1.000000
 ScaDFX=  1.000000  1.000000  1.000000  1.000000 ScalE2=  1.000000  1.000000
 IRadAn=      5 IRanWt=     -1 IRanGd=            0 ICorTp=0 IEmpDi=121
 HFx  wShort=  0.000000 wLong=  0.200000 cFull=  0.222036 cShort=  0.000000 cLong=  0.777964
 DFx  wShort=  0.000000 wLong=  0.200000 cFull=  0.000000 cShort=  0.000000 cLong=  1.000000
 NAtoms=   16 NActive=   16 NUniq=   16 SFac= 1.00D+00 NAtFMM=   60 NAOKFM=F Big=F
 Integral buffers will be    131072 words long.
 Raffenetti 2 integral format.
 Two-electron integral symmetry is turned on.
 R6Disp:  Grimme-D2 Dispersion energy=       -0.0083025627 Hartrees.
 Nuclear repulsion after empirical dispersion term =      312.7081202771 Hartrees.
 Leave Link  301 at Wed May 14 13:26:32 2025, MaxMem=  3758096384 cpu:               0.3 elap:               0.1
 (Enter /gpfs/fs1/soft/bebop/software/custom-built/gaussian/16-c.02/g16/l302.exe)
 NPDir=0 NMtPBC=     1 NCelOv=     1 NCel=       1 NClECP=     1 NCelD=      1
         NCelK=      1 NCelE2=     1 NClLst=     1 CellRange=     0.0.
 One-electron integrals computed using PRISM.
 One-electron integral symmetry used in STVInt
   1 Symmetry operations used in ECPInt.
 ECPInt:  NShTT=    2415 NPrTT=    8503 LenC2=    2408 LenP2D=    7029.
 LDataN:  DoStor=T MaxTD1= 4 Len=   56
 NBasis=   143 RedAO= T EigKep=  1.15D-03  NBF=   143
 NBsUse=   143 1.00D-06 EigRej= -1.00D+00 NBFU=   143
 Precomputing XC quadrature grid using
 IXCGrd= 4 IRadAn=           5 IRanWt=          -1 IRanGd=           0 AccXCQ= 0.00D+00.
 Generated NRdTot=       0 NPtTot=           0 NUsed=           0 NTot=          32
 NSgBfM=   150   150   150   150   150 MxSgAt=    16 MxSgA2=    16.
 Leave Link  302 at Wed May 14 13:26:32 2025, MaxMem=  3758096384 cpu:               1.1 elap:               0.2
 (Enter /gpfs/fs1/soft/bebop/software/custom-built/gaussian/16-c.02/g16/l303.exe)
 DipDrv:  MaxL=1.
 Leave Link  303 at Wed May 14 13:26:32 2025, MaxMem=  3758096384 cpu:               0.1 elap:               0.0
 (Enter /gpfs/fs1/soft/bebop/software/custom-built/gaussian/16-c.02/g16/l401.exe)
 ExpMin= 1.22D-01 ExpMax= 2.27D+03 ExpMxC= 3.41D+02 IAcc=3 IRadAn=         5 AccDes= 0.00D+00
 Harris functional with IExCor= 4639 and IRadAn=       5 diagonalized for initial guess.
 HarFok:  IExCor= 4639 AccDes= 0.00D+00 IRadAn=         5 IDoV= 1 UseB2=F ITyADJ=14
 ICtDFT=  3500011 ScaDFX=  1.000000  1.000000  1.000000  1.000000
 FoFCou: FMM=F IPFlag=           0 FMFlag=      100000 FMFlg1=           0
         NFxFlg=           0 DoJE=T BraDBF=F KetDBF=T FulRan=T
         wScrn=  0.000000 ICntrl=       500 IOpCl=  0 I1Cent=   200000004 NGrid=           0
         NMat0=    1 NMatS0=      1 NMatT0=    0 NMatD0=    1 NMtDS0=    0 NMtDT0=    0
 Petite list used in FoFCou.
 Harris En= -331.230028696747    
 JPrj=0 DoOrth=F DoCkMO=F.
 Initial guess <Sx>= 0.0000 <Sy>= 0.0000 <Sz>= 0.5000 <S**2>= 0.7500 S= 0.5000
 Leave Link  401 at Wed May 14 13:26:33 2025, MaxMem=  3758096384 cpu:               3.2 elap:               0.6
 (Enter /gpfs/fs1/soft/bebop/software/custom-built/gaussian/16-c.02/g16/l502.exe)
 Keep R1 and R2 ints in memory in canonical form, NReq=219390812.
 FoFCou: FMM=F IPFlag=           0 FMFlag=           0 FMFlg1=           0
         NFxFlg=           0 DoJE=F BraDBF=F KetDBF=F FulRan=T
         wScrn=  0.000000 ICntrl=       600 IOpCl=  0 I1Cent=           0 NGrid=           0
         NMat0=    1 NMatS0=  10296 NMatT0=    0 NMatD0=    1 NMtDS0=    0 NMtDT0=    0
 Symmetry not used in FoFCou.
 Two-electron integral symmetry not used.
 UHF open shell SCF:
 Using DIIS extrapolation, IDIIS=  1040.
 NGot=  3758096384 LenX=  3546012518 LenY=  3545989577
 Requested convergence on RMS density matrix=1.00D-08 within  32 cycles.
 Requested convergence on MAX density matrix=1.00D-06.
 Requested convergence on             energy=1.00D-06.
 No special actions if energy rises.
 Integral accuracy reduced to 1.0D-05 until final iterations.

 Cycle   1  Pass 0  IDiag  1:
 E= -345.669221956905    
 DIIS: error= 3.00D-02 at cycle   1 NSaved=   1.
 NSaved= 1 IEnMin= 1 EnMin= -345.669221956905     IErMin= 1 ErrMin= 3.00D-02
 ErrMax= 3.00D-02  0.00D+00 EMaxC= 1.00D-01 BMatC= 9.66D-01 BMatP= 9.66D-01
 IDIUse=3 WtCom= 7.00D-01 WtEn= 3.00D-01
 Coeff-Com:  0.100D+01
 Coeff-En:   0.100D+01
 Coeff:      0.100D+01
 Gap=     0.324 Goal=   None    Shift=    0.000
 Gap=     0.464 Goal=   None    Shift=    0.000
 GapD=    0.324 DampG=1.000 DampE=0.500 DampFc=0.5000 IDamp=-1.
 Damping current iteration by 5.00D-01
 RMSDP=5.98D-03 MaxDP=1.41D-01              OVMax= 2.30D-01

 Cycle   2  Pass 0  IDiag  1:
 E= -345.733566389317     Delta-E=       -0.064344432412 Rises=F Damp=T
 DIIS: error= 1.65D-02 at cycle   2 NSaved=   2.
 NSaved= 2 IEnMin= 2 EnMin= -345.733566389317     IErMin= 2 ErrMin= 1.65D-02
 ErrMax= 1.65D-02  0.00D+00 EMaxC= 1.00D-01 BMatC= 1.22D-01 BMatP= 9.66D-01
 IDIUse=3 WtCom= 8.35D-01 WtEn= 1.65D-01
 Coeff-Com: -0.126D+00 0.113D+01
 Coeff-En:   0.000D+00 0.100D+01
 Coeff:     -0.105D+00 0.110D+01
 Gap=     0.384 Goal=   None    Shift=    0.000
 Gap=     0.416 Goal=   None    Shift=    0.000
 RMSDP=1.87D-03 MaxDP=6.09D-02 DE=-6.43D-02 OVMax= 1.68D-01

 Cycle   3  Pass 0  IDiag  1:
 E= -345.807488009489     Delta-E=       -0.073921620172 Rises=F Damp=F
 DIIS: error= 4.49D-03 at cycle   3 NSaved=   3.
 NSaved= 3 IEnMin= 3 EnMin= -345.807488009489     IErMin= 3 ErrMin= 4.49D-03
 ErrMax= 4.49D-03  0.00D+00 EMaxC= 1.00D-01 BMatC= 2.29D-02 BMatP= 1.22D-01
 IDIUse=3 WtCom= 9.55D-01 WtEn= 4.49D-02
 Coeff-Com: -0.148D+00 0.312D+00 0.836D+00
 Coeff-En:   0.000D+00 0.000D+00 0.100D+01
 Coeff:     -0.141D+00 0.298D+00 0.843D+00
 Gap=     0.313 Goal=   None    Shift=    0.000
 Gap=     0.346 Goal=   None    Shift=    0.000
 RMSDP=7.27D-04 MaxDP=1.62D-02 DE=-7.39D-02 OVMax= 3.45D-02

 Cycle   4  Pass 0  IDiag  1:
 E= -345.813739494072     Delta-E=       -0.006251484583 Rises=F Damp=F
 DIIS: error= 9.24D-04 at cycle   4 NSaved=   4.
 NSaved= 4 IEnMin= 4 EnMin= -345.813739494072     IErMin= 4 ErrMin= 9.24D-04
 ErrMax= 9.24D-04  0.00D+00 EMaxC= 1.00D-01 BMatC= 1.32D-03 BMatP= 2.29D-02
 IDIUse=3 WtCom= 9.91D-01 WtEn= 9.24D-03
 Coeff-Com: -0.381D-01 0.630D-01 0.248D+00 0.727D+00
 Coeff-En:   0.000D+00 0.000D+00 0.000D+00 0.100D+01
 Coeff:     -0.378D-01 0.624D-01 0.245D+00 0.730D+00
 Gap=     0.319 Goal=   None    Shift=    0.000
 Gap=     0.333 Goal=   None    Shift=    0.000
 RMSDP=2.66D-04 MaxDP=9.06D-03 DE=-6.25D-03 OVMax= 1.61D-02

 Cycle   5  Pass 0  IDiag  1:
 E= -345.814622958953     Delta-E=       -0.000883464881 Rises=F Damp=F
 DIIS: error= 6.92D-04 at cycle   5 NSaved=   5.
 NSaved= 5 IEnMin= 5 EnMin= -345.814622958953     IErMin= 5 ErrMin= 6.92D-04
 ErrMax= 6.92D-04  0.00D+00 EMaxC= 1.00D-01 BMatC= 4.18D-04 BMatP= 1.32D-03
 IDIUse=3 WtCom= 9.93D-01 WtEn= 6.92D-03
 Coeff-Com:  0.389D-01-0.813D-01-0.235D+00 0.127D-01 0.126D+01
 Coeff-En:   0.000D+00 0.000D+00 0.000D+00 0.000D+00 0.100D+01
 Coeff:      0.387D-01-0.808D-01-0.234D+00 0.126D-01 0.126D+01
 Gap=     0.325 Goal=   None    Shift=    0.000
 Gap=     0.340 Goal=   None    Shift=    0.000
 RMSDP=2.92D-04 MaxDP=9.22D-03 DE=-8.83D-04 OVMax= 2.18D-02

 Cycle   6  Pass 0  IDiag  1:
 E= -345.815259364759     Delta-E=       -0.000636405806 Rises=F Damp=F
 DIIS: error= 2.88D-04 at cycle   6 NSaved=   6.
 NSaved= 6 IEnMin= 6 EnMin= -345.815259364759     IErMin= 6 ErrMin= 2.88D-04
 ErrMax= 2.88D-04  0.00D+00 EMaxC= 1.00D-01 BMatC= 1.22D-04 BMatP= 4.18D-04
 IDIUse=3 WtCom= 9.97D-01 WtEn= 2.88D-03
 Coeff-Com:  0.221D-01-0.410D-01-0.143D+00-0.203D+00 0.452D+00 0.913D+00
 Coeff-En:   0.000D+00 0.000D+00 0.000D+00 0.000D+00 0.000D+00 0.100D+01
 Coeff:      0.221D-01-0.409D-01-0.142D+00-0.202D+00 0.451D+00 0.913D+00
 Gap=     0.328 Goal=   None    Shift=    0.000
 Gap=     0.343 Goal=   None    Shift=    0.000
 RMSDP=1.46D-04 MaxDP=5.27D-03 DE=-6.36D-04 OVMax= 1.16D-02

 Cycle   7  Pass 0  IDiag  1:
 E= -345.815400126180     Delta-E=       -0.000140761421 Rises=F Damp=F
 DIIS: error= 1.57D-04 at cycle   7 NSaved=   7.
 NSaved= 7 IEnMin= 7 EnMin= -345.815400126180     IErMin= 7 ErrMin= 1.57D-04
 ErrMax= 1.57D-04  0.00D+00 EMaxC= 1.00D-01 BMatC= 3.15D-05 BMatP= 1.22D-04
 IDIUse=3 WtCom= 9.98D-01 WtEn= 1.57D-03
 Coeff-Com: -0.413D-03 0.281D-02-0.258D-02-0.828D-01-0.805D-01 0.347D+00
 Coeff-Com:  0.817D+00
 Coeff-En:   0.000D+00 0.000D+00 0.000D+00 0.000D+00 0.000D+00 0.000D+00
 Coeff-En:   0.100D+01
 Coeff:     -0.413D-03 0.280D-02-0.258D-02-0.826D-01-0.804D-01 0.346D+00
 Coeff:      0.817D+00
 Gap=     0.329 Goal=   None    Shift=    0.000
 Gap=     0.344 Goal=   None    Shift=    0.000
 RMSDP=5.28D-05 MaxDP=1.96D-03 DE=-1.41D-04 OVMax= 4.57D-03

 Cycle   8  Pass 0  IDiag  1:
 E= -345.815423541248     Delta-E=       -0.000023415068 Rises=F Damp=F
 DIIS: error= 1.15D-04 at cycle   8 NSaved=   8.
 NSaved= 8 IEnMin= 8 EnMin= -345.815423541248     IErMin= 8 ErrMin= 1.15D-04
 ErrMax= 1.15D-04  0.00D+00 EMaxC= 1.00D-01 BMatC= 8.47D-06 BMatP= 3.15D-05
 IDIUse=3 WtCom= 9.99D-01 WtEn= 1.15D-03
 Coeff-Com: -0.675D-02 0.133D-01 0.396D-01 0.234D-01-0.148D+00-0.130D+00
 Coeff-Com:  0.334D+00 0.875D+00
 Coeff-En:   0.000D+00 0.000D+00 0.000D+00 0.000D+00 0.000D+00 0.000D+00
 Coeff-En:   0.000D+00 0.100D+01
 Coeff:     -0.675D-02 0.133D-01 0.395D-01 0.234D-01-0.148D+00-0.130D+00
 Coeff:      0.334D+00 0.875D+00
 Gap=     0.329 Goal=   None    Shift=    0.000
 Gap=     0.344 Goal=   None    Shift=    0.000
 RMSDP=2.75D-05 MaxDP=1.09D-03 DE=-2.34D-05 OVMax= 2.58D-03

 Cycle   9  Pass 0  IDiag  1:
 E= -345.815429539165     Delta-E=       -0.000005997917 Rises=F Damp=F
 DIIS: error= 3.59D-05 at cycle   9 NSaved=   9.
 NSaved= 9 IEnMin= 9 EnMin= -345.815429539165     IErMin= 9 ErrMin= 3.59D-05
 ErrMax= 3.59D-05  0.00D+00 EMaxC= 1.00D-01 BMatC= 1.70D-06 BMatP= 8.47D-06
 IDIUse=1 WtCom= 1.00D+00 WtEn= 0.00D+00
 Coeff-Com: -0.236D-02 0.444D-02 0.145D-01 0.201D-01-0.409D-01-0.117D+00
 Coeff-Com: -0.321D-02 0.366D+00 0.759D+00
 Coeff:     -0.236D-02 0.444D-02 0.145D-01 0.201D-01-0.409D-01-0.117D+00
 Coeff:     -0.321D-02 0.366D+00 0.759D+00
 Gap=     0.329 Goal=   None    Shift=    0.000
 Gap=     0.344 Goal=   None    Shift=    0.000
 RMSDP=1.17D-05 MaxDP=3.95D-04 DE=-6.00D-06 OVMax= 8.85D-04

 Failed to achieve initial convergence to 1.0D-08 in 10 cycles.
 Switch to full accuracy anyway.
 Cycle  10  Pass 1  IDiag  1:
 E= -345.815380017021     Delta-E=        0.000049522145 Rises=F Damp=F
 DIIS: error= 2.43D-05 at cycle   1 NSaved=   1.
 NSaved= 1 IEnMin= 1 EnMin= -345.815380017021     IErMin= 1 ErrMin= 2.43D-05
 ErrMax= 2.43D-05  0.00D+00 EMaxC= 1.00D-01 BMatC= 6.97D-07 BMatP= 6.97D-07
 IDIUse=1 WtCom= 1.00D+00 WtEn= 0.00D+00
 Coeff-Com:  0.100D+01
 Coeff:      0.100D+01
 Gap=     0.329 Goal=   None    Shift=    0.000
 Gap=     0.344 Goal=   None    Shift=    0.000
 RMSDP=1.17D-05 MaxDP=3.95D-04 DE= 4.95D-05 OVMax= 3.68D-04

 Cycle  11  Pass 1  IDiag  1:
 E= -345.815380398250     Delta-E=       -0.000000381229 Rises=F Damp=F
 DIIS: error= 1.37D-05 at cycle   2 NSaved=   2.
 NSaved= 2 IEnMin= 2 EnMin= -345.815380398250     IErMin= 2 ErrMin= 1.37D-05
 ErrMax= 1.37D-05  0.00D+00 EMaxC= 1.00D-01 BMatC= 1.66D-07 BMatP= 6.97D-07
 IDIUse=1 WtCom= 1.00D+00 WtEn= 0.00D+00
 Coeff-Com:  0.721D-01 0.928D+00
 Coeff:      0.721D-01 0.928D+00
 Gap=     0.329 Goal=   None    Shift=    0.000
 Gap=     0.344 Goal=   None    Shift=    0.000
 RMSDP=3.20D-06 MaxDP=8.68D-05 DE=-3.81D-07 OVMax= 1.49D-04

 Cycle  12  Pass 1  IDiag  1:
 E= -345.815380507570     Delta-E=       -0.000000109320 Rises=F Damp=F
 DIIS: error= 1.48D-05 at cycle   3 NSaved=   3.
 NSaved= 3 IEnMin= 3 EnMin= -345.815380507570     IErMin= 2 ErrMin= 1.37D-05
 ErrMax= 1.48D-05  0.00D+00 EMaxC= 1.00D-01 BMatC= 1.14D-07 BMatP= 1.66D-07
 IDIUse=1 WtCom= 1.00D+00 WtEn= 0.00D+00
 Coeff-Com: -0.156D+00 0.464D+00 0.692D+00
 Coeff:     -0.156D+00 0.464D+00 0.692D+00
 Gap=     0.329 Goal=   None    Shift=    0.000
 Gap=     0.344 Goal=   None    Shift=    0.000
 RMSDP=1.99D-06 MaxDP=6.32D-05 DE=-1.09D-07 OVMax= 1.43D-04

 Cycle  13  Pass 1  IDiag  1:
 E= -345.815380573744     Delta-E=       -0.000000066174 Rises=F Damp=F
 DIIS: error= 6.73D-06 at cycle   4 NSaved=   4.
 NSaved= 4 IEnMin= 4 EnMin= -345.815380573744     IErMin= 4 ErrMin= 6.73D-06
 ErrMax= 6.73D-06  0.00D+00 EMaxC= 1.00D-01 BMatC= 2.63D-08 BMatP= 1.14D-07
 IDIUse=1 WtCom= 1.00D+00 WtEn= 0.00D+00
 Coeff-Com: -0.388D-01-0.223D+00 0.982D-01 0.116D+01
 Coeff:     -0.388D-01-0.223D+00 0.982D-01 0.116D+01
 Gap=     0.329 Goal=   None    Shift=    0.000
 Gap=     0.344 Goal=   None    Shift=    0.000
 RMSDP=2.05D-06 MaxDP=5.83D-05 DE=-6.62D-08 OVMax= 1.37D-04

 Cycle  14  Pass 1  IDiag  1:
 E= -345.815380610089     Delta-E=       -0.000000036345 Rises=F Damp=F
 DIIS: error= 5.15D-06 at cycle   5 NSaved=   5.
 NSaved= 5 IEnMin= 5 EnMin= -345.815380610089     IErMin= 5 ErrMin= 5.15D-06
 ErrMax= 5.15D-06  0.00D+00 EMaxC= 1.00D-01 BMatC= 1.16D-08 BMatP= 2.63D-08
 IDIUse=1 WtCom= 1.00D+00 WtEn= 0.00D+00
 Coeff-Com:  0.505D-01-0.352D+00-0.282D+00 0.628D+00 0.956D+00
 Coeff:      0.505D-01-0.352D+00-0.282D+00 0.628D+00 0.956D+00
 Gap=     0.329 Goal=   None    Shift=    0.000
 Gap=     0.344 Goal=   None    Shift=    0.000
 RMSDP=1.64D-06 MaxDP=4.36D-05 DE=-3.63D-08 OVMax= 1.03D-04

 Cycle  15  Pass 1  IDiag  1:
 E= -345.815380623334     Delta-E=       -0.000000013245 Rises=F Damp=F
 DIIS: error= 1.16D-06 at cycle   6 NSaved=   6.
 NSaved= 6 IEnMin= 6 EnMin= -345.815380623334     IErMin= 6 ErrMin= 1.16D-06
 ErrMax= 1.16D-06  0.00D+00 EMaxC= 1.00D-01 BMatC= 1.12D-09 BMatP= 1.16D-08
 IDIUse=1 WtCom= 1.00D+00 WtEn= 0.00D+00
 Coeff-Com:  0.196D-01-0.567D-01-0.942D-01-0.140D-02 0.278D+00 0.855D+00
 Coeff:      0.196D-01-0.567D-01-0.942D-01-0.140D-02 0.278D+00 0.855D+00
 Gap=     0.329 Goal=   None    Shift=    0.000
 Gap=     0.344 Goal=   None    Shift=    0.000
 RMSDP=3.40D-07 MaxDP=8.95D-06 DE=-1.32D-08 OVMax= 1.73D-05

 Cycle  16  Pass 1  IDiag  1:
 E= -345.815380624207     Delta-E=       -0.000000000874 Rises=F Damp=F
 DIIS: error= 4.93D-07 at cycle   7 NSaved=   7.
 NSaved= 7 IEnMin= 7 EnMin= -345.815380624207     IErMin= 7 ErrMin= 4.93D-07
 ErrMax= 4.93D-07  0.00D+00 EMaxC= 1.00D-01 BMatC= 1.94D-10 BMatP= 1.12D-09
 IDIUse=1 WtCom= 1.00D+00 WtEn= 0.00D+00
 Coeff-Com: -0.630D-02 0.624D-01 0.308D-01-0.134D+00-0.117D+00 0.148D+00
 Coeff-Com:  0.102D+01
 Coeff:     -0.630D-02 0.624D-01 0.308D-01-0.134D+00-0.117D+00 0.148D+00
 Coeff:      0.102D+01
 Gap=     0.329 Goal=   None    Shift=    0.000
 Gap=     0.344 Goal=   None    Shift=    0.000
 RMSDP=1.64D-07 MaxDP=3.90D-06 DE=-8.74D-10 OVMax= 9.48D-06

 Cycle  17  Pass 1  IDiag  1:
 E= -345.815380624405     Delta-E=       -0.000000000197 Rises=F Damp=F
 DIIS: error= 1.69D-07 at cycle   8 NSaved=   8.
 NSaved= 8 IEnMin= 8 EnMin= -345.815380624405     IErMin= 8 ErrMin= 1.69D-07
 ErrMax= 1.69D-07  0.00D+00 EMaxC= 1.00D-01 BMatC= 4.94D-11 BMatP= 1.94D-10
 IDIUse=1 WtCom= 1.00D+00 WtEn= 0.00D+00
 Coeff-Com: -0.566D-02 0.306D-01 0.266D-01-0.396D-01-0.815D-01-0.149D+00
 Coeff-Com:  0.314D+00 0.905D+00
 Coeff:     -0.566D-02 0.306D-01 0.266D-01-0.396D-01-0.815D-01-0.149D+00
 Coeff:      0.314D+00 0.905D+00
 Gap=     0.329 Goal=   None    Shift=    0.000
 Gap=     0.344 Goal=   None    Shift=    0.000
 RMSDP=7.75D-08 MaxDP=1.80D-06 DE=-1.97D-10 OVMax= 3.72D-06

 Cycle  18  Pass 1  IDiag  1:
 E= -345.815380624442     Delta-E=       -0.000000000037 Rises=F Damp=F
 DIIS: error= 7.87D-08 at cycle   9 NSaved=   9.
 NSaved= 9 IEnMin= 9 EnMin= -345.815380624442     IErMin= 9 ErrMin= 7.87D-08
 ErrMax= 7.87D-08  0.00D+00 EMaxC= 1.00D-01 BMatC= 6.35D-12 BMatP= 4.94D-11
 IDIUse=1 WtCom= 1.00D+00 WtEn= 0.00D+00
 Coeff-Com: -0.388D-05-0.457D-02-0.756D-03 0.145D-01 0.596D-02-0.564D-01
 Coeff-Com: -0.106D+00 0.169D+00 0.979D+00
 Coeff:     -0.388D-05-0.457D-02-0.756D-03 0.145D-01 0.596D-02-0.564D-01
 Coeff:     -0.106D+00 0.169D+00 0.979D+00
 Gap=     0.329 Goal=   None    Shift=    0.000
 Gap=     0.344 Goal=   None    Shift=    0.000
 RMSDP=2.89D-08 MaxDP=9.33D-07 DE=-3.67D-11 OVMax= 1.61D-06

 Cycle  19  Pass 1  IDiag  1:
 E= -345.815380624449     Delta-E=       -0.000000000008 Rises=F Damp=F
 DIIS: error= 3.63D-08 at cycle  10 NSaved=  10.
 NSaved=10 IEnMin=10 EnMin= -345.815380624449     IErMin=10 ErrMin= 3.63D-08
 ErrMax= 3.63D-08  0.00D+00 EMaxC= 1.00D-01 BMatC= 1.39D-12 BMatP= 6.35D-12
 IDIUse=1 WtCom= 1.00D+00 WtEn= 0.00D+00
 Coeff-Com:  0.938D-03-0.626D-02-0.475D-02 0.107D-01 0.150D-01 0.118D-01
 Coeff-Com: -0.801D-01-0.109D+00 0.223D+00 0.939D+00
 Coeff:      0.938D-03-0.626D-02-0.475D-02 0.107D-01 0.150D-01 0.118D-01
 Coeff:     -0.801D-01-0.109D+00 0.223D+00 0.939D+00
 Gap=     0.329 Goal=   None    Shift=    0.000
 Gap=     0.344 Goal=   None    Shift=    0.000
 RMSDP=1.22D-08 MaxDP=3.53D-07 DE=-7.73D-12 OVMax= 6.93D-07

 Cycle  20  Pass 1  IDiag  1:
 E= -345.815380624449     Delta-E=        0.000000000000 Rises=F Damp=F
 DIIS: error= 1.64D-08 at cycle  11 NSaved=  11.
 NSaved=11 IEnMin=10 EnMin= -345.815380624449     IErMin=11 ErrMin= 1.64D-08
 ErrMax= 1.64D-08  0.00D+00 EMaxC= 1.00D-01 BMatC= 3.50D-13 BMatP= 1.39D-12
 IDIUse=1 WtCom= 1.00D+00 WtEn= 0.00D+00
 Coeff-Com:  0.153D-03 0.690D-04-0.616D-03-0.175D-02 0.663D-03 0.175D-01
 Coeff-Com:  0.124D-01-0.623D-01-0.224D+00 0.159D+00 0.110D+01
 Coeff:      0.153D-03 0.690D-04-0.616D-03-0.175D-02 0.663D-03 0.175D-01
 Coeff:      0.124D-01-0.623D-01-0.224D+00 0.159D+00 0.110D+01
 Gap=     0.329 Goal=   None    Shift=    0.000
 Gap=     0.344 Goal=   None    Shift=    0.000
 RMSDP=7.82D-09 MaxDP=2.74D-07 DE= 2.27D-13 OVMax= 5.30D-07

 SCF Done:  E(UwB97XD) =  -345.815380624     A.U. after   20 cycles
            NFock= 20  Conv=0.78D-08     -V/T= 2.0094
 <Sx>= 0.0000 <Sy>= 0.0000 <Sz>= 0.5000 <S**2>= 0.8059 S= 0.5276
 <L.S>=  0.00000000000    
 KE= 3.425896133652D+02 PE=-1.432639016309D+03 EE= 4.315259020418D+02
 Annihilation of the first spin contaminant:
 S**2 before annihilation     0.8059,   after     0.7508
 Leave Link  502 at Wed May 14 13:26:48 2025, MaxMem=  3758096384 cpu:              75.1 elap:              15.0
 (Enter /gpfs/fs1/soft/bebop/software/custom-built/gaussian/16-c.02/g16/l508.exe)
 QCSCF skips out because SCF is already converged.
 Leave Link  508 at Wed May 14 13:26:48 2025, MaxMem=  3758096384 cpu:               0.0 elap:               0.0
 (Enter /gpfs/fs1/soft/bebop/software/custom-built/gaussian/16-c.02/g16/l801.exe)
 DoSCS=F DFT=T ScalE2(SS,OS)=  1.000000  1.000000
 Range of M.O.s used for correlation:     1   143
 NBasis=   143 NAE=    28 NBE=    27 NFC=     0 NFV=     0
 NROrb=    143 NOA=    28 NOB=    27 NVA=   115 NVB=   116
 Leave Link  801 at Wed May 14 13:26:48 2025, MaxMem=  3758096384 cpu:               0.1 elap:               0.0
 (Enter /gpfs/fs1/soft/bebop/software/custom-built/gaussian/16-c.02/g16/l1101.exe)
 Using compressed storage, NAtomX=    16.
 Will process     17 centers per pass.
   1 Symmetry operations used in ECPInt.
 ECPInt:  NShTT=    2415 NPrTT=    8503 LenC2=    2408 LenP2D=    7029.
 LDataN:  DoStor=T MaxTD1= 5 Len=  102
 R6Disp: Adding Grimme-D2 dispersion energy 1st derivatives to the gradient.
 Leave Link 1101 at Wed May 14 13:26:48 2025, MaxMem=  3758096384 cpu:               0.7 elap:               0.1
 (Enter /gpfs/fs1/soft/bebop/software/custom-built/gaussian/16-c.02/g16/l1102.exe)
 Symmetrizing basis deriv contribution to polar:
 IMax=3 JMax=2 DiffMx= 0.00D+00
 Leave Link 1102 at Wed May 14 13:26:48 2025, MaxMem=  3758096384 cpu:               0.1 elap:               0.0
 (Enter /gpfs/fs1/soft/bebop/software/custom-built/gaussian/16-c.02/g16/l1110.exe)
 Forming Gx(P) for the SCF density, NAtomX=    16.
 Integral derivatives from FoFJK, PRISM(SPDF).
 Do as many integral derivatives as possible in FoFJK.
 G2DrvN: MDV=    3758094600.
 G2DrvN: will do    17 centers at a time, making    1 passes.
 Calling FoFCou, ICntrl=  3107 FMM=F I1Cent=   0 AccDes= 0.00D+00.
 FoFJK:  IHMeth= 1 ICntrl=    3107 DoSepK=T KAlg= 0 I1Cent=           0 FoldK=F
 IRaf=         1 NMat=       1 IRICut=       1 DoRegI=T DoRafI=F ISym2E= 0 IDoP0=0 IntGTp=1.
 FoFCou: FMM=F IPFlag=           0 FMFlag=      100000 FMFlg1=           0
         NFxFlg=           0 DoJE=F BraDBF=F KetDBF=F FulRan=T
         wScrn=  0.000000 ICntrl=      3507 IOpCl=  0 I1Cent=           0 NGrid=           0
         NMat0=    1 NMatS0=      1 NMatT0=    0 NMatD0=    1 NMtDS0=    0 NMtDT0=    0
 Symmetry not used in FoFCou.
 End of G2Drv F.D. properties file   721 does not exist.
 End of G2Drv F.D. properties file   722 does not exist.
 End of G2Drv F.D. properties file   788 does not exist.
 Leave Link 1110 at Wed May 14 13:27:11 2025, MaxMem=  3758096384 cpu:             137.5 elap:              23.0
 (Enter /gpfs/fs1/soft/bebop/software/custom-built/gaussian/16-c.02/g16/l1002.exe)
 Minotr:  UHF open shell wavefunction.
          IDoAtm=1111111111111111
          Direct CPHF calculation.
          Differentiating once with respect to nuclear coordinates.
          Requested convergence is 1.0D-08 RMS, and 1.0D-07 maximum.
          Secondary convergence is 1.0D-12 RMS, and 1.0D-12 maximum.
          NewPWx=T KeepS1=F KeepF1=F KeepIn=T MapXYZ=F SortEE=F KeepMc=T.
         4741 words used for storage of precomputed grid.
 Keep R1 and R2 ints in memory in canonical form, NReq=219386903.
 FoFCou: FMM=F IPFlag=           0 FMFlag=           0 FMFlg1=           0
         NFxFlg=           0 DoJE=F BraDBF=F KetDBF=F FulRan=T
         wScrn=  0.000000 ICntrl=       600 IOpCl=  0 I1Cent=           0 NGrid=           0
         NMat0=    1 NMatS0=  10296 NMatT0=    0 NMatD0=    1 NMtDS0=    0 NMtDT0=    0
 Symmetry not used in FoFCou.
 Two-electron integral symmetry not used.
          MDV=    3758096384 using IRadAn=       1.
          Solving linear equations simultaneously, MaxMat=       0.
          There are    51 degrees of freedom in the 1st order CPHF.  IDoFFX=6 NUNeed=     0.
     45 vectors produced by pass  0 Test12= 1.25D-14 1.96D-09 XBig12= 1.42D-01 1.10D-01.
 AX will form    45 AO Fock derivatives at one time.
     45 vectors produced by pass  1 Test12= 1.25D-14 1.96D-09 XBig12= 1.25D-02 3.00D-02.
     45 vectors produced by pass  2 Test12= 1.25D-14 1.96D-09 XBig12= 4.86D-04 4.91D-03.
     45 vectors produced by pass  3 Test12= 1.25D-14 1.96D-09 XBig12= 5.63D-06 3.45D-04.
     45 vectors produced by pass  4 Test12= 1.25D-14 1.96D-09 XBig12= 7.48D-08 4.37D-05.
     45 vectors produced by pass  5 Test12= 1.25D-14 1.96D-09 XBig12= 7.77D-10 3.47D-06.
     45 vectors produced by pass  6 Test12= 1.25D-14 1.96D-09 XBig12= 6.90D-12 2.96D-07.
     24 vectors produced by pass  7 Test12= 1.25D-14 1.96D-09 XBig12= 4.90D-14 2.14D-08.
      2 vectors produced by pass  8 Test12= 1.25D-14 1.96D-09 XBig12= 3.73D-16 2.43D-09.
 InvSVY:  IOpt=1 It=  1 EMax= 5.00D-16
 Solved reduced A of dimension   341 with    51 vectors.
 End of Minotr F.D. properties file   721 does not exist.
 End of Minotr F.D. properties file   722 does not exist.
 End of Minotr F.D. properties file   788 does not exist.
 Leave Link 1002 at Wed May 14 13:27:36 2025, MaxMem=  3758096384 cpu:             149.5 elap:              25.0
 (Enter /gpfs/fs1/soft/bebop/software/custom-built/gaussian/16-c.02/g16/l601.exe)
 Copying SCF densities to generalized density rwf, IOpCl= 1 IROHF=0.

 **********************************************************************

            Population analysis using the SCF Density.

 **********************************************************************

 Orbital symmetries:
 Alpha Orbitals:
       Occupied  (A) (A) (A) (A) (A) (A) (A) (A) (A) (A) (A) (A)
                 (A) (A) (A) (A) (A) (A) (A) (A) (A) (A) (A) (A)
                 (A) (A) (A) (A)
       Virtual   (A) (A) (A) (A) (A) (A) (A) (A) (A) (A) (A) (A)
                 (A) (A) (A) (A) (A) (A) (A) (A) (A) (A) (A) (A)
                 (A) (A) (A) (A) (A) (A) (A) (A) (A) (A) (A) (A)
                 (A) (A) (A) (A) (A) (A) (A) (A) (A) (A) (A) (A)
                 (A) (A) (A) (A) (A) (A) (A) (A) (A) (A) (A) (A)
                 (A) (A) (A) (A) (A) (A) (A) (A) (A) (A) (A) (A)
                 (A) (A) (A) (A) (A) (A) (A) (A) (A) (A) (A) (A)
                 (A) (A) (A) (A) (A) (A) (A) (A) (A) (A) (A) (A)
                 (A) (A) (A) (A) (A) (A) (A) (A) (A) (A) (A) (A)
                 (A) (A) (A) (A) (A) (A) (A)
 Beta  Orbitals:
       Occupied  (A) (A) (A) (A) (A) (A) (A) (A) (A) (A) (A) (A)
                 (A) (A) (A) (A) (A) (A) (A) (A) (A) (A) (A) (A)
                 (A) (A) (A)
       Virtual   (A) (A) (A) (A) (A) (A) (A) (A) (A) (A) (A) (A)
                 (A) (A) (A) (A) (A) (A) (A) (A) (A) (A) (A) (A)
                 (A) (A) (A) (A) (A) (A) (A) (A) (A) (A) (A) (A)
                 (A) (A) (A) (A) (A) (A) (A) (A) (A) (A) (A) (A)
                 (A) (A) (A) (A) (A) (A) (A) (A) (A) (A) (A) (A)
                 (A) (A) (A) (A) (A) (A) (A) (A) (A) (A) (A) (A)
                 (A) (A) (A) (A) (A) (A) (A) (A) (A) (A) (A) (A)
                 (A) (A) (A) (A) (A) (A) (A) (A) (A) (A) (A) (A)
                 (A) (A) (A) (A) (A) (A) (A) (A) (A) (A) (A) (A)
                 (A) (A) (A) (A) (A) (A) (A) (A)
 The electronic state is 2-A.
 Alpha  occ. eigenvalues --  -19.30693 -19.29830 -10.35532 -10.30443 -10.30042
 Alpha  occ. eigenvalues --  -10.29824 -10.29695  -1.20621  -1.01341  -0.90917
 Alpha  occ. eigenvalues --   -0.81870  -0.76583  -0.67518  -0.63798  -0.59852
 Alpha  occ. eigenvalues --   -0.58301  -0.57721  -0.53451  -0.50972  -0.49125
 Alpha  occ. eigenvalues --   -0.47849  -0.46326  -0.43226  -0.42279  -0.38604
 Alpha  occ. eigenvalues --   -0.35804  -0.34947  -0.25373
 Alpha virt. eigenvalues --    0.07548   0.12635   0.14030   0.15926   0.16579
 Alpha virt. eigenvalues --    0.18519   0.20523   0.21249   0.22603   0.23390
 Alpha virt. eigenvalues --    0.27011   0.29486   0.30297   0.32972   0.38351
 Alpha virt. eigenvalues --    0.41339   0.49774   0.52188   0.53653   0.55239
 Alpha virt. eigenvalues --    0.57430   0.59765   0.62383   0.65099   0.67418
 Alpha virt. eigenvalues --    0.68235   0.69370   0.71271   0.72099   0.73386
 Alpha virt. eigenvalues --    0.73757   0.74934   0.77184   0.77594   0.78335
 Alpha virt. eigenvalues --    0.79045   0.79846   0.81079   0.82468   0.87484
 Alpha virt. eigenvalues --    0.90434   0.92127   0.96627   1.00474   1.02947
 Alpha virt. eigenvalues --    1.08231   1.13051   1.15393   1.20001   1.25712
 Alpha virt. eigenvalues --    1.27507   1.34100   1.37113   1.41896   1.43649
 Alpha virt. eigenvalues --    1.46651   1.51104   1.52218   1.58231   1.62780
 Alpha virt. eigenvalues --    1.64266   1.68317   1.72845   1.74322   1.76537
 Alpha virt. eigenvalues --    1.80499   1.83249   1.85513   1.86362   1.87749
 Alpha virt. eigenvalues --    1.90616   1.92735   1.95467   1.96816   1.97845
 Alpha virt. eigenvalues --    1.98604   2.03856   2.05528   2.10207   2.11866
 Alpha virt. eigenvalues --    2.13075   2.19070   2.20322   2.25768   2.28211
 Alpha virt. eigenvalues --    2.29818   2.32639   2.34235   2.39461   2.41975
 Alpha virt. eigenvalues --    2.47992   2.52112   2.56097   2.57890   2.63337
 Alpha virt. eigenvalues --    2.65900   2.69278   2.71092   2.80276   2.84625
 Alpha virt. eigenvalues --    2.86515   2.90162   2.91450   2.97625   3.02271
 Alpha virt. eigenvalues --    3.05335   3.07334   3.12450   3.16767   3.21705
 Alpha virt. eigenvalues --    3.28627   3.33889   3.47318   3.66335   3.92986
  Beta  occ. eigenvalues --  -19.30780 -19.29472 -10.34565 -10.30736 -10.29846
  Beta  occ. eigenvalues --  -10.29734 -10.29386  -1.20048  -1.00408  -0.90226
  Beta  occ. eigenvalues --   -0.81342  -0.75848  -0.66403  -0.62873  -0.59063
  Beta  occ. eigenvalues --   -0.57765  -0.57244  -0.52855  -0.50231  -0.48429
  Beta  occ. eigenvalues --   -0.47360  -0.45570  -0.42733  -0.41980  -0.38248
  Beta  occ. eigenvalues --   -0.34764  -0.33678
  Beta virt. eigenvalues --    0.00754   0.09220   0.13774   0.15501   0.16209
  Beta virt. eigenvalues --    0.16775   0.18570   0.20628   0.21680   0.22712
  Beta virt. eigenvalues --    0.23676   0.27272   0.29899   0.30967   0.33920
  Beta virt. eigenvalues --    0.39064   0.41731   0.50034   0.52544   0.54158
  Beta virt. eigenvalues --    0.55630   0.58234   0.60921   0.63051   0.66059
  Beta virt. eigenvalues --    0.67798   0.69517   0.69996   0.71647   0.72614
  Beta virt. eigenvalues --    0.73853   0.74346   0.75315   0.77432   0.78005
  Beta virt. eigenvalues --    0.78588   0.79153   0.80150   0.81458   0.82893
  Beta virt. eigenvalues --    0.87802   0.91126   0.92294   0.97004   1.00869
  Beta virt. eigenvalues --    1.03401   1.08716   1.13358   1.15767   1.20223
  Beta virt. eigenvalues --    1.26041   1.27889   1.34402   1.37619   1.42218
  Beta virt. eigenvalues --    1.44244   1.46955   1.51403   1.52391   1.58866
  Beta virt. eigenvalues --    1.63328   1.65043   1.68970   1.73706   1.74630
  Beta virt. eigenvalues --    1.76893   1.80667   1.83481   1.86037   1.87094
  Beta virt. eigenvalues --    1.88217   1.91191   1.93105   1.95994   1.97341
  Beta virt. eigenvalues --    1.98752   1.99812   2.04200   2.05639   2.10826
  Beta virt. eigenvalues --    2.12870   2.14247   2.19946   2.21089   2.26263
  Beta virt. eigenvalues --    2.28458   2.30841   2.33836   2.34437   2.39879
  Beta virt. eigenvalues --    2.42713   2.48629   2.52646   2.56454   2.58366
  Beta virt. eigenvalues --    2.64315   2.66501   2.69996   2.71663   2.80741
  Beta virt. eigenvalues --    2.84802   2.86776   2.90533   2.92278   2.97840
  Beta virt. eigenvalues --    3.02452   3.05593   3.07604   3.12692   3.17355
  Beta virt. eigenvalues --    3.22401   3.29317   3.34189   3.47831   3.66529
  Beta virt. eigenvalues --    3.93471
          Condensed to atoms (all electrons):
               1          2          3          4          5          6
     1  C    4.931727   0.394294   0.412098  -0.086459  -0.015963  -0.014687
     2  C    0.394294   4.710508  -0.041152   0.367661   0.370457   0.368248
     3  H    0.412098  -0.041152   0.626300   0.006433  -0.010295   0.003759
     4  C   -0.086459   0.367661   0.006433   4.878740  -0.010733  -0.016283
     5  H   -0.015963   0.370457  -0.010295  -0.010733   0.643806  -0.023658
     6  H   -0.014687   0.368248   0.003759  -0.016283  -0.023658   0.639199
     7  C   -0.054581  -0.082085   0.001003   0.332631  -0.005476   0.005691
     8  H   -0.006903  -0.008256  -0.000397   0.358134   0.006333  -0.012169
     9  H    0.004342  -0.016340  -0.000118   0.360153  -0.011360   0.001227
    10  C    0.580476  -0.086690  -0.035301  -0.038283   0.004903  -0.001062
    11  O    0.003701   0.010878  -0.000472  -0.057993   0.002876  -0.000043
    12  H    0.003148   0.010865  -0.000137  -0.070346  -0.000165  -0.000228
    13  H   -0.024761   0.010264  -0.011963   0.000087  -0.000255  -0.000379
    14  H   -0.008173  -0.016856   0.006402   0.007386   0.000066   0.001217
    15  O   -0.001127  -0.001124  -0.000004  -0.009506   0.000430  -0.000011
    16  H    0.000207   0.000135   0.000002  -0.000528  -0.000027   0.000002
               7          8          9         10         11         12
     1  C   -0.054581  -0.006903   0.004342   0.580476   0.003701   0.003148
     2  C   -0.082085  -0.008256  -0.016340  -0.086690   0.010878   0.010865
     3  H    0.001003  -0.000397  -0.000118  -0.035301  -0.000472  -0.000137
     4  C    0.332631   0.358134   0.360153  -0.038283  -0.057993  -0.070346
     5  H   -0.005476   0.006333  -0.011360   0.004903   0.002876  -0.000165
     6  H    0.005691  -0.012169   0.001227  -0.001062  -0.000043  -0.000228
     7  C    5.034487  -0.022012  -0.000275   0.141485   0.288689   0.402814
     8  H   -0.022012   0.670986  -0.023271   0.002817   0.004358  -0.002205
     9  H   -0.000275  -0.023271   0.621638   0.003746  -0.007974   0.000308
    10  C    0.141485   0.002817   0.003746   4.731863  -0.023973  -0.009037
    11  O    0.288689   0.004358  -0.007974  -0.023973   7.971253  -0.031480
    12  H    0.402814  -0.002205   0.000308  -0.009037  -0.031480   0.668587
    13  H    0.002395   0.000063  -0.000056   0.393781  -0.000081   0.000136
    14  H   -0.037596   0.000255  -0.000266   0.385460   0.001243  -0.000697
    15  O   -0.035962  -0.000087   0.011132   0.001492   0.079433  -0.000110
    16  H    0.002379   0.000013  -0.000671  -0.000310  -0.013805   0.002758
              13         14         15         16
     1  C   -0.024761  -0.008173  -0.001127   0.000207
     2  C    0.010264  -0.016856  -0.001124   0.000135
     3  H   -0.011963   0.006402  -0.000004   0.000002
     4  C    0.000087   0.007386  -0.009506  -0.000528
     5  H   -0.000255   0.000066   0.000430  -0.000027
     6  H   -0.000379   0.001217  -0.000011   0.000002
     7  C    0.002395  -0.037596  -0.035962   0.002379
     8  H    0.000063   0.000255  -0.000087   0.000013
     9  H   -0.000056  -0.000266   0.011132  -0.000671
    10  C    0.393781   0.385460   0.001492  -0.000310
    11  O   -0.000081   0.001243   0.079433  -0.013805
    12  H    0.000136  -0.000697  -0.000110   0.002758
    13  H    0.616285  -0.038873   0.000006  -0.000008
    14  H   -0.038873   0.639217  -0.000125   0.000037
    15  O    0.000006  -0.000125   7.835678   0.303759
    16  H   -0.000008   0.000037   0.303759   0.514040
          Atomic-Atomic Spin Densities.
               1          2          3          4          5          6
     1  C    0.680945  -0.010868   0.005431  -0.007601  -0.006243  -0.011080
     2  C   -0.010868  -0.014232  -0.000290  -0.005418  -0.000526   0.012921
     3  H    0.005431  -0.000290  -0.026986  -0.000360  -0.000291   0.000326
     4  C   -0.007601  -0.005418  -0.000360  -0.022562   0.005261  -0.006954
     5  H   -0.006243  -0.000526  -0.000291   0.005261   0.012094  -0.004246
     6  H   -0.011080   0.012921   0.000326  -0.006954  -0.004246   0.025390
     7  C   -0.080721  -0.011547  -0.001679  -0.018061   0.001274  -0.001612
     8  H    0.000426   0.000814   0.000023   0.001687  -0.000111   0.000456
     9  H   -0.001287  -0.006949  -0.000028   0.010597   0.000982  -0.000578
    10  C    0.007795   0.003401  -0.001327   0.011467   0.000200   0.000199
    11  O    0.002522   0.000601   0.000043   0.000778  -0.000054  -0.000000
    12  H    0.001381   0.000464   0.000026   0.002462  -0.000047   0.000056
    13  H   -0.002671  -0.000254  -0.000146  -0.000140   0.000043  -0.000061
    14  H   -0.000014   0.002759   0.000412   0.000846  -0.000269   0.000978
    15  O   -0.001261  -0.000439  -0.000018   0.000241   0.000164  -0.000015
    16  H    0.000181   0.000037   0.000004   0.000036  -0.000021   0.000002
               7          8          9         10         11         12
     1  C   -0.080721   0.000426  -0.001287   0.007795   0.002522   0.001381
     2  C   -0.011547   0.000814  -0.006949   0.003401   0.000601   0.000464
     3  H   -0.001679   0.000023  -0.000028  -0.001327   0.000043   0.000026
     4  C   -0.018061   0.001687   0.010597   0.011467   0.000778   0.002462
     5  H    0.001274  -0.000111   0.000982   0.000200  -0.000054  -0.000047
     6  H   -0.001612   0.000456  -0.000578   0.000199  -0.000000   0.000056
     7  C    0.905144  -0.002529  -0.007908  -0.031073  -0.012528  -0.006812
     8  H   -0.002529   0.000204  -0.001367   0.000000   0.000064   0.000634
     9  H   -0.007908  -0.001367   0.022329  -0.000554  -0.000781  -0.001105
    10  C   -0.031073   0.000000  -0.000554  -0.296713   0.004152   0.001490
    11  O   -0.012528   0.000064  -0.000781   0.004152  -0.022719   0.002718
    12  H   -0.006812   0.000634  -0.001105   0.001490   0.002718  -0.027732
    13  H    0.006507  -0.000026   0.000020   0.000467  -0.000229  -0.000210
    14  H   -0.042133   0.000668  -0.000372   0.009503   0.000323   0.001942
    15  O   -0.030314  -0.000066   0.001646  -0.000191  -0.030951  -0.002184
    16  H    0.002550   0.000007  -0.000226   0.000043   0.003637   0.000424
              13         14         15         16
     1  C   -0.002671  -0.000014  -0.001261   0.000181
     2  C   -0.000254   0.002759  -0.000439   0.000037
     3  H   -0.000146   0.000412  -0.000018   0.000004
     4  C   -0.000140   0.000846   0.000241   0.000036
     5  H    0.000043  -0.000269   0.000164  -0.000021
     6  H   -0.000061   0.000978  -0.000015   0.000002
     7  C    0.006507  -0.042133  -0.030314   0.002550
     8  H   -0.000026   0.000668  -0.000066   0.000007
     9  H    0.000020  -0.000372   0.001646  -0.000226
    10  C    0.000467   0.009503  -0.000191   0.000043
    11  O   -0.000229   0.000323  -0.030951   0.003637
    12  H   -0.000210   0.001942  -0.002184   0.000424
    13  H    0.014683  -0.005033   0.000027  -0.000010
    14  H   -0.005033   0.064762  -0.000105   0.000024
    15  O    0.000027  -0.000105   0.185629  -0.003699
    16  H   -0.000010   0.000024  -0.003699  -0.001331
 Mulliken charges and spin densities:
               1          2
     1  C   -0.117339   0.576935
     2  C    0.009191  -0.029527
     3  H    0.043842  -0.024861
     4  C   -0.021092  -0.027722
     5  H    0.049063   0.008212
     6  H    0.049178   0.015782
     7  C    0.026412   0.668556
     8  H    0.032341   0.000884
     9  H    0.057786   0.014420
    10  C   -0.051365  -0.291141
    11  O   -0.226609  -0.052424
    12  H    0.025788  -0.026495
    13  H    0.053360   0.012967
    14  H    0.061303   0.034290
    15  O   -0.183874   0.118466
    16  H    0.192017   0.001658
 Sum of Mulliken charges =  -0.00000   1.00000
 Mulliken charges and spin densities with hydrogens summed into heavy atoms:
               1          2
     1  C   -0.073497   0.552074
     2  C    0.107431  -0.005532
     4  C    0.069034  -0.012418
     7  C    0.052200   0.642061
    10  C    0.063297  -0.243885
    11  O   -0.226609  -0.052424
    15  O    0.008143   0.120124
 APT charges:
               1
     1  C   -0.533199
     2  C   -0.640988
     3  H    0.408524
     4  C   -0.552367
     5  H    0.270011
     6  H    0.480123
     7  C   -0.478967
     8  H    0.355666
     9  H    0.319261
    10  C   -0.605883
    11  O   -0.056900
    12  H    0.359912
    13  H    0.452946
    14  H    0.262065
    15  O   -0.690468
    16  H    0.650264
 Sum of APT charges =  -0.00000
 APT charges with hydrogens summed into heavy atoms:
               1
     1  C   -0.124675
     2  C    0.109146
     4  C    0.122560
     7  C   -0.119055
    10  C    0.109128
    11  O   -0.056900
    15  O   -0.040204
 Electronic spatial extent (au):  <R**2>=            789.1858
 Charge=             -0.0000 electrons
 Dipole moment (field-independent basis, Debye):
    X=             -0.1394    Y=             -0.3255    Z=              1.2695  Tot=              1.3180
 Quadrupole moment (field-independent basis, Debye-Ang):
   XX=            -39.5026   YY=            -41.4737   ZZ=            -41.5055
   XY=              3.1637   XZ=             -1.5737   YZ=             -0.3471
 Traceless Quadrupole moment (field-independent basis, Debye-Ang):
   XX=              1.3246   YY=             -0.6465   ZZ=             -0.6782
   XY=              3.1637   XZ=             -1.5737   YZ=             -0.3471
 Octapole moment (field-independent basis, Debye-Ang**2):
  XXX=            -48.3353  YYY=             -2.8834  ZZZ=             -2.4643  XYY=             -4.6041
  XXY=            -10.2032  XXZ=              1.1005  XZZ=             -2.3817  YZZ=             -1.1774
  YYZ=             -1.2704  XYZ=              0.3954
 Hexadecapole moment (field-independent basis, Debye-Ang**3):
 XXXX=           -512.3407 YYYY=           -249.3220 ZZZZ=           -152.6572 XXXY=             46.1116
 XXXZ=              6.9172 YYYX=             -0.9919 YYYZ=              1.1350 ZZZX=              3.0673
 ZZZY=              0.3333 XXYY=           -132.7247 XXZZ=           -123.8989 YYZZ=            -69.5948
 XXYZ=              3.4642 YYXZ=              1.5207 ZZXY=              1.2050
 N-N= 3.127081202771D+02 E-N=-1.432639015061D+03  KE= 3.425896133652D+02
  Exact polarizability:       0.000       0.000       0.000       0.000       0.000       0.000
 Approx polarizability:      82.627      -5.056      66.800      -3.709      -4.279      65.857
                          Isotropic Fermi Contact Couplings
        Atom                 a.u.       MegaHertz       Gauss      10(-4) cm-1
     1  C(13)              0.10783     121.21681      43.25317      40.43357
     2  C(13)             -0.00349      -3.92392      -1.40015      -1.30888
     3  H(1)              -0.00662     -29.60178     -10.56265      -9.87409
     4  C(13)             -0.01714     -19.27049      -6.87619      -6.42794
     5  H(1)               0.00358      16.02204       5.71706       5.34438
     6  H(1)               0.00864      38.63896      13.78734      12.88857
     7  C(13)              0.28241     317.48712     113.28730     105.90231
     8  H(1)               0.00021       0.95153       0.33953       0.31740
     9  H(1)               0.00708      31.66031      11.29718      10.56074
    10  C(13)             -0.04253     -47.81015     -17.05985     -15.94775
    11  O(17)              0.12689     -76.92039     -27.44711     -25.65788
    12  H(1)              -0.00788     -35.22182     -12.56802     -11.74874
    13  H(1)               0.00332      14.84162       5.29586       4.95063
    14  H(1)               0.01747      78.10901      27.87124      26.05436
    15  O(17)              0.11854     -71.85615     -25.64006     -23.96863
    16  H(1)              -0.00187      -8.33998      -2.97591      -2.78192
 --------------------------------------------------------
       Center         ----  Spin Dipole Couplings  ----
                      3XX-RR        3YY-RR        3ZZ-RR
 --------------------------------------------------------
     1   Atom        0.548763     -0.273819     -0.274944
     2   Atom       -0.002383     -0.004259      0.006643
     3   Atom        0.000593     -0.031317      0.030724
     4   Atom       -0.004040      0.008357     -0.004317
     5   Atom       -0.001888      0.005240     -0.003351
     6   Atom       -0.001200      0.007868     -0.006668
     7   Atom        0.304519      0.058804     -0.363323
     8   Atom       -0.000711      0.003156     -0.002445
     9   Atom       -0.002350      0.010009     -0.007659
    10   Atom       -0.247064      0.119030      0.128034
    11   Atom       -0.008161     -0.056753      0.064913
    12   Atom       -0.013084     -0.019210      0.032294
    13   Atom       -0.001347     -0.006732      0.008079
    14   Atom        0.006570      0.001791     -0.008360
    15   Atom        0.234241     -0.048188     -0.186053
    16   Atom        0.015208      0.002948     -0.018156
 --------------------------------------------------------
                        XY            XZ            YZ
 --------------------------------------------------------
     1   Atom        0.161513      0.137600      0.033523
     2   Atom        0.007394     -0.007981     -0.002006
     3   Atom        0.000757     -0.011643      0.026075
     4   Atom        0.002788     -0.008307     -0.002113
     5   Atom       -0.003291     -0.000687     -0.006289
     6   Atom        0.004373     -0.002254      0.002023
     7   Atom       -0.559092     -0.158966      0.114971
     8   Atom        0.006258      0.002615      0.007709
     9   Atom       -0.000143     -0.001724     -0.000237
    10   Atom        0.016542     -0.002186     -0.012309
    11   Atom        0.157267     -0.025161     -0.017955
    12   Atom       -0.008030     -0.033836     -0.027966
    13   Atom       -0.003001     -0.002575     -0.009796
    14   Atom       -0.004705      0.002914     -0.013353
    15   Atom       -0.328105      0.241489     -0.153472
    16   Atom        0.018001      0.002351     -0.005648
 --------------------------------------------------------


 ---------------------------------------------------------------------------------
              Anisotropic Spin Dipole Couplings in Principal Axis System
 ---------------------------------------------------------------------------------

       Atom             a.u.   MegaHertz   Gauss  10(-4) cm-1        Axes

              Baa    -0.3090   -41.471   -14.798   -13.833 -0.0731  0.8427 -0.5333
     1 C(13)  Bbb    -0.2931   -39.331   -14.034   -13.119 -0.2328  0.5056  0.8308
              Bcc     0.6021    80.802    28.832    26.953  0.9698  0.1849  0.1592
 
              Baa    -0.0117    -1.573    -0.561    -0.525  0.7210 -0.6491  0.2424
     2 C(13)  Bbb    -0.0014    -0.193    -0.069    -0.064  0.4226  0.6893  0.5885
              Bcc     0.0132     1.766     0.630     0.589 -0.5491 -0.3219  0.7713
 
              Baa    -0.0414   -22.070    -7.875    -7.362 -0.1150  0.9280 -0.3543
     3 H(1)   Bbb    -0.0016    -0.840    -0.300    -0.280  0.9624  0.1924  0.1916
              Bcc     0.0429    22.910     8.175     7.642 -0.2460  0.3189  0.9153
 
              Baa    -0.0125    -1.677    -0.598    -0.559  0.7043 -0.0223  0.7095
     4 C(13)  Bbb     0.0022     0.293     0.105     0.098 -0.6113  0.4891  0.6222
              Bcc     0.0103     1.384     0.494     0.462  0.3609  0.8720 -0.3308
 
              Baa    -0.0075    -4.027    -1.437    -1.343  0.3777  0.4851  0.7887
     5 H(1)   Bbb    -0.0016    -0.872    -0.311    -0.291  0.8960  0.0233 -0.4435
              Bcc     0.0092     4.899     1.748     1.634 -0.2335  0.8742 -0.4258
 
              Baa    -0.0083    -4.407    -1.572    -1.470  0.4197 -0.2241  0.8795
     6 H(1)   Bbb    -0.0014    -0.769    -0.275    -0.257  0.8333 -0.2890 -0.4713
              Bcc     0.0097     5.176     1.847     1.727  0.3598  0.9307  0.0655
 
              Baa    -0.4040   -54.218   -19.346   -18.085  0.4785  0.3816  0.7908
     7 C(13)  Bbb    -0.3834   -51.451   -18.359   -17.162  0.4236  0.6886 -0.5886
              Bcc     0.7875   105.669    37.705    35.247  0.7691 -0.6166 -0.1679
 
              Baa    -0.0083    -4.413    -1.575    -1.472  0.2793 -0.6374  0.7181
     8 H(1)   Bbb    -0.0038    -2.006    -0.716    -0.669  0.8406 -0.1992 -0.5037
              Bcc     0.0120     6.420     2.291     2.141  0.4641  0.7443  0.4802
 
              Baa    -0.0082    -4.361    -1.556    -1.455  0.2841  0.0147  0.9587
     9 H(1)   Bbb    -0.0018    -0.982    -0.350    -0.327  0.9587  0.0059 -0.2842
              Bcc     0.0100     5.343     1.906     1.782 -0.0098  0.9999 -0.0124
 
              Baa    -0.2478   -33.255   -11.866   -11.093  0.9990 -0.0449  0.0043
    10 C(13)  Bbb     0.1108    14.874     5.307     4.961  0.0339  0.8106  0.5847
              Bcc     0.1370    18.381     6.559     6.131 -0.0298 -0.5839  0.8113
 
              Baa    -0.1916    13.865     4.948     4.625 -0.6516  0.7584 -0.0108
    11 O(17)  Bbb     0.0522    -3.778    -1.348    -1.260  0.2833  0.2566  0.9241
              Bcc     0.1394   -10.087    -3.599    -3.365  0.7036  0.5991 -0.3821
 
              Baa    -0.0480   -25.601    -9.135    -8.540  0.6086  0.6338  0.4773
    12 H(1)   Bbb    -0.0085    -4.540    -1.620    -1.514 -0.6892  0.7204 -0.0778
              Bcc     0.0565    30.141    10.755    10.054 -0.3932 -0.2816  0.8753
 
              Baa    -0.0129    -6.874    -2.453    -2.293  0.3162  0.8440  0.4332
    13 H(1)   Bbb    -0.0001    -0.073    -0.026    -0.024  0.9461 -0.3143 -0.0782
              Bcc     0.0130     6.948     2.479     2.317 -0.0701 -0.4346  0.8979
 
              Baa    -0.0176    -9.376    -3.346    -3.127  0.0118  0.5696  0.8218
    14 H(1)   Bbb     0.0028     1.511     0.539     0.504  0.8281  0.4551 -0.3273
              Bcc     0.0147     7.865     2.806     2.623 -0.5604  0.6845 -0.4663
 
              Baa    -0.2963    21.443     7.651     7.153 -0.3689  0.0847  0.9256
    15 O(17)  Bbb    -0.2636    19.075     6.806     6.363  0.5040  0.8550  0.1227
              Bcc     0.5600   -40.518   -14.458   -13.515  0.7810 -0.5117  0.3581
 
              Baa    -0.0213   -11.374    -4.058    -3.794 -0.2500  0.3916  0.8855
    16 H(1)   Bbb    -0.0068    -3.638    -1.298    -1.214 -0.5305  0.7097 -0.4636
              Bcc     0.0281    15.012     5.357     5.007  0.8100  0.5857 -0.0303
 

 ---------------------------------------------------------------------------------

 No NMR shielding tensors so no spin-rotation constants.
 Leave Link  601 at Wed May 14 13:27:36 2025, MaxMem=  3758096384 cpu:               1.2 elap:               0.2
 (Enter /gpfs/fs1/soft/bebop/software/custom-built/gaussian/16-c.02/g16/l701.exe)
 ... and contract with generalized density number  0.
 Compute integral second derivatives.
 R6Disp: Adding Grimme-D2 dispersion energy 2nd derivatives to the Hessian.
   1 Symmetry operations used in ECPInt.
 ECPInt:  NShTT=    2415 NPrTT=    8503 LenC2=    2408 LenP2D=    7029.
 LDataN:  DoStor=T MaxTD1= 6 Len=  172
 Leave Link  701 at Wed May 14 13:27:36 2025, MaxMem=  3758096384 cpu:               0.6 elap:               0.1
 (Enter /gpfs/fs1/soft/bebop/software/custom-built/gaussian/16-c.02/g16/l702.exe)
 L702 exits ... SP integral derivatives will be done elsewhere.
 Leave Link  702 at Wed May 14 13:27:36 2025, MaxMem=  3758096384 cpu:               0.1 elap:               0.0
 (Enter /gpfs/fs1/soft/bebop/software/custom-built/gaussian/16-c.02/g16/l703.exe)
 Integral derivatives from FoFJK, PRISM(SPDF).
 Compute integral second derivatives, UseDBF=F ICtDFT=           0.
 Calling FoFJK, ICntrl=    100127 FMM=F ISym2X=0 I1Cent= 0 IOpClX= 1 NMat=1 NMatS=1 NMatT=0.
 FoFJK:  IHMeth= 1 ICntrl=  100127 DoSepK=T KAlg= 0 I1Cent=           0 FoldK=F
 IRaf=         1 NMat=       1 IRICut=       1 DoRegI=T DoRafI=F ISym2E= 0 IDoP0=0 IntGTp=1.
 FoFCou: FMM=F IPFlag=           0 FMFlag=      100000 FMFlg1=         800
         NFxFlg=           0 DoJE=F BraDBF=F KetDBF=F FulRan=T
         wScrn=  0.000000 ICntrl=    100527 IOpCl=  0 I1Cent=           0 NGrid=           0
         NMat0=    1 NMatS0=      1 NMatT0=    0 NMatD0=    1 NMtDS0=    0 NMtDT0=    0
 Symmetry not used in FoFCou.
 Leave Link  703 at Wed May 14 13:28:15 2025, MaxMem=  3758096384 cpu:             229.5 elap:              38.4
 (Enter /gpfs/fs1/soft/bebop/software/custom-built/gaussian/16-c.02/g16/l716.exe)
 Dipole        =-5.48321727D-02-1.28079330D-01 4.99469991D-01
 Polarizability= 0.00000000D+00 0.00000000D+00 0.00000000D+00
                 0.00000000D+00 0.00000000D+00 0.00000000D+00
 ***** Axes restored to original set *****
 -------------------------------------------------------------------
 Center     Atomic                   Forces (Hartrees/Bohr)
 Number     Number              X              Y              Z
 -------------------------------------------------------------------
      1        6          -0.000017824    0.000009618    0.000005169
      2        6           0.000042532    0.000001342    0.000000319
      3        1           0.000001256   -0.000002100    0.000003502
      4        6          -0.000008979   -0.000020259   -0.000024500
      5        1          -0.000001529   -0.000002922    0.000004133
      6        1          -0.000008079    0.000001008   -0.000000132
      7        6          -0.000051323   -0.000071633   -0.000044815
      8        1          -0.000005159    0.000008112   -0.000009006
      9        1           0.000001964    0.000001700   -0.000001263
     10        6          -0.000008872   -0.000033321    0.000043948
     11        8           0.000034631    0.000073672    0.000027297
     12        1           0.000010550    0.000023346    0.000007451
     13        1           0.000004072    0.000026016    0.000009434
     14        1          -0.000002131   -0.000015161   -0.000006061
     15        8           0.000004611   -0.000007001   -0.000020057
     16        1           0.000004280    0.000007583    0.000004582
 -------------------------------------------------------------------
 Cartesian Forces:  Max     0.000073672 RMS     0.000023378
 -----------------------------------------------------------------------------------------------
                       Internal Coordinate Forces (Hartree/Bohr or radian)
  Cent   Atom   N1       Length/X         N2         Alpha/Y        N3         Beta/Z          J
 -----------------------------------------------------------------------------------------------
      1  C 
      2  C        1  -0.000009(     1)
      3  H        1  -0.000001(     2)      2  -0.000008(    16)
      4  C        2   0.000004(     3)      1  -0.000084(    17)      3  -0.000000(    30)     0
      5  H        2  -0.000001(     4)      1   0.000010(    18)      4  -0.000004(    31)     0
      6  H        2   0.000000(     5)      1  -0.000000(    19)      4  -0.000016(    32)     0
      7  C        4  -0.000012(     6)      2  -0.000032(    20)      1  -0.000007(    33)     0
      8  H        4  -0.000001(     7)      2   0.000015(    21)      7  -0.000022(    34)     0
      9  H        4   0.000000(     8)      2  -0.000002(    22)      7   0.000005(    35)     0
     10  C        7  -0.000017(     9)      4  -0.000130(    23)      2  -0.000004(    36)     0
     11  O        7   0.000076(    10)      4   0.000002(    24)     10  -0.000063(    37)     0
     12  H        7  -0.000001(    11)      4   0.000022(    25)     10   0.000045(    38)     0
     13  H       10  -0.000003(    12)      7  -0.000056(    26)      4   0.000005(    39)     0
     14  H       10   0.000003(    13)      7   0.000032(    27)     13  -0.000008(    40)     0
     15  O       11  -0.000010(    14)      7   0.000036(    28)     10   0.000008(    41)     0
     16  H       15   0.000003(    15)     11   0.000015(    29)      7  -0.000007(    42)     0
 -----------------------------------------------------------------------------------------------
 Internal  Forces:  Max     0.000129690 RMS     0.000032714
 Leave Link  716 at Wed May 14 13:28:15 2025, MaxMem=  3758096384 cpu:               0.2 elap:               0.0
 (Enter /gpfs/fs1/soft/bebop/software/custom-built/gaussian/16-c.02/g16/l103.exe)

 GradGradGradGradGradGradGradGradGradGradGradGradGradGradGradGradGradGrad
 Berny optimization.
 Search for a saddle point.
 Step number   1 out of a maximum of   60
 All quantities printed in internal units (Hartrees-Bohrs-Radians)
 Swapping is turned off.
 Second derivative matrix not updated -- analytic derivatives used.
 ITU=  0
     Eigenvalues ---   -0.10692   0.00351   0.01017   0.01468   0.04200
     Eigenvalues ---    0.05125   0.05934   0.06498   0.06752   0.10341
     Eigenvalues ---    0.11580   0.12006   0.14516   0.14543   0.16657
     Eigenvalues ---    0.17705   0.18576   0.20602   0.21974   0.22750
     Eigenvalues ---    0.23444   0.24369   0.26762   0.27117   0.29752
     Eigenvalues ---    0.32197   0.33545   0.33848   0.33969   0.34332
     Eigenvalues ---    0.34909   0.35412   0.35724   0.36130   0.36589
     Eigenvalues ---    0.42788   0.45692   0.50254   0.53084   0.88845
     Eigenvalues ---    2.62189  16.96439
 Eigenvectors required to have negative eigenvalues:
                          R9        A13       A9        A12       D10
   1                    0.90816  -0.31108  -0.12697   0.11199   0.10998
                          R14       D11       R10       D13       A10
   1                    0.09982  -0.08528  -0.07948   0.07925   0.03804
 RFO step:  Lambda0=1.080133712D-08 Lambda=-1.87815139D-07.
 Linear search not attempted -- option 19 set.
 Variable       Old X    -DE/DX   Delta X   Delta X   Delta X     New X
                                 (Linear)    (Quad)   (Total)
    R1        2.84083  -0.00001   0.00000  -0.00002  -0.00002   2.84081
    R2        2.06599  -0.00000   0.00000   0.00000   0.00000   2.06599
    R3        2.92810   0.00000   0.00000   0.00001   0.00001   2.92812
    R4        2.07982  -0.00000   0.00000  -0.00002  -0.00002   2.07980
    R5        2.08549   0.00000   0.00000  -0.00000  -0.00000   2.08549
    R6        2.84522  -0.00001   0.00000   0.00001   0.00001   2.84524
    R7        2.08153  -0.00000   0.00000   0.00000   0.00000   2.08153
    R8        2.08332   0.00000   0.00000   0.00001   0.00001   2.08333
    R9        4.18172  -0.00002   0.00000   0.00052   0.00052   4.18224
   R10        2.56428   0.00008   0.00000   0.00026   0.00026   2.56454
   R11        2.08221  -0.00000   0.00000  -0.00001  -0.00001   2.08220
   R12        2.06801  -0.00000   0.00000  -0.00001  -0.00001   2.06800
   R13        2.06848   0.00000   0.00000  -0.00001  -0.00001   2.06847
   R14        2.77734  -0.00001   0.00000  -0.00024  -0.00024   2.77711
   R15        1.82725   0.00000   0.00000   0.00000   0.00000   1.82725
    A2        2.08123  -0.00001   0.00000  -0.00005  -0.00005   2.08119
    A3        1.87409  -0.00008   0.00000  -0.00022  -0.00022   1.87387
    A4        1.89799   0.00001   0.00000   0.00013   0.00013   1.89813
    A5        1.97967  -0.00000   0.00000   0.00003   0.00003   1.97970
    A6        1.91505  -0.00003   0.00000   0.00004   0.00004   1.91509
    A7        1.93757   0.00001   0.00000   0.00004   0.00004   1.93761
    A8        1.93775  -0.00000   0.00000   0.00000   0.00000   1.93775
    A9        1.55695  -0.00013   0.00000  -0.00039  -0.00039   1.55656
   A10        2.04753   0.00000   0.00000  -0.00009  -0.00009   2.04743
   A11        2.06909   0.00002   0.00000   0.00003   0.00003   2.06913
   A12        2.09186  -0.00006   0.00000  -0.00052  -0.00052   2.09134
   A13        1.40304   0.00003   0.00000   0.00023   0.00023   1.40326
   A14        1.88804   0.00004   0.00000   0.00009   0.00009   1.88813
   A15        1.73924   0.00002   0.00000   0.00009   0.00009   1.73933
    D3        2.42855  -0.00000   0.00000  -0.00014  -0.00014   2.42841
    D4        4.19758  -0.00000   0.00000  -0.00002  -0.00002   4.19756
    D5        2.14045  -0.00002   0.00000  -0.00024  -0.00024   2.14021
    D6        5.83948  -0.00001   0.00000  -0.00060  -0.00060   5.83888
    D7        2.08647  -0.00002   0.00000  -0.00011  -0.00011   2.08636
    D8        4.15377   0.00001   0.00000  -0.00006  -0.00006   4.15371
    D9        0.69345  -0.00000   0.00000   0.00060   0.00060   0.69405
   D10        4.48723  -0.00006   0.00000  -0.00016  -0.00016   4.48707
   D11        1.94908   0.00004   0.00000   0.00042   0.00042   1.94950
   D12        3.27332   0.00000   0.00000  -0.00017  -0.00017   3.27314
   D13        4.31431  -0.00001   0.00000  -0.00021  -0.00021   4.31410
   D14        3.34817   0.00001   0.00000   0.00092   0.00092   3.34910
   D15        4.32198  -0.00001   0.00000  -0.00095  -0.00095   4.32103
         Item               Value     Threshold  Converged?
 Maximum Force            0.000130     0.000450     YES
 RMS     Force            0.000033     0.000300     YES
 Maximum Displacement     0.000948     0.001800     YES
 RMS     Displacement     0.000302     0.001200     YES
 Predicted change in Energy=-8.850690D-08
 Optimization completed.
    -- Stationary point found.
                       ----------------------------
                       !   Optimized Parameters   !
                       ! (Angstroms and Degrees)  !
 ----------------------                            ----------------------
 !      Name          Value   Derivative information (Atomic Units)     !
 ------------------------------------------------------------------------
 !       R1          1.5033   -DE/DX =    0.0                           !
 !       R2          1.0933   -DE/DX =    0.0                           !
 !       R3          1.5495   -DE/DX =    0.0                           !
 !       R4          1.1006   -DE/DX =    0.0                           !
 !       R5          1.1036   -DE/DX =    0.0                           !
 !       R6          1.5056   -DE/DX =    0.0                           !
 !       R7          1.1015   -DE/DX =    0.0                           !
 !       R8          1.1024   -DE/DX =    0.0                           !
 !       R9          2.2129   -DE/DX =    0.0                           !
 !       R10         1.357    -DE/DX =    0.0001                        !
 !       R11         1.1019   -DE/DX =    0.0                           !
 !       R12         1.0943   -DE/DX =    0.0                           !
 !       R13         1.0946   -DE/DX =    0.0                           !
 !       R14         1.4697   -DE/DX =    0.0                           !
 !       R15         0.9669   -DE/DX =    0.0                           !
 !       A2        119.2458   -DE/DX =    0.0                           !
 !       A3        107.3776   -DE/DX =   -0.0001                        !
 !       A4        108.7469   -DE/DX =    0.0                           !
 !       A5        113.4267   -DE/DX =    0.0                           !
 !       A6        109.7241   -DE/DX =    0.0                           !
 !       A7        111.0143   -DE/DX =    0.0                           !
 !       A8        111.0248   -DE/DX =    0.0                           !
 !       A9         89.2065   -DE/DX =   -0.0001                        !
 !       A10       117.3147   -DE/DX =    0.0                           !
 !       A11       118.5503   -DE/DX =    0.0                           !
 !       A12       119.855    -DE/DX =   -0.0001                        !
 !       A13        80.388    -DE/DX =    0.0                           !
 !       A14       108.1769   -DE/DX =    0.0                           !
 !       A15        99.651    -DE/DX =    0.0                           !
 !       D3        139.1457   -DE/DX =    0.0                           !
 !       D4        240.5033   -DE/DX =    0.0                           !
 !       D5        122.6389   -DE/DX =    0.0                           !
 !       D6        334.5778   -DE/DX =    0.0                           !
 !       D7        119.5456   -DE/DX =    0.0                           !
 !       D8        237.9934   -DE/DX =    0.0                           !
 !       D9         39.7315   -DE/DX =    0.0                           !
 !       D10       257.0992   -DE/DX =   -0.0001                        !
 !       D11       111.674    -DE/DX =    0.0                           !
 !       D12       187.5472   -DE/DX =    0.0                           !
 !       D13       247.1917   -DE/DX =    0.0                           !
 !       D14       191.8361   -DE/DX =    0.0                           !
 !       D15       247.6312   -DE/DX =    0.0                           !
 ------------------------------------------------------------------------
 Lowest energy point so far.  Saving SCF results.
 Largest change from initial coordinates is atom   14       0.000 Angstoms.
 GradGradGradGradGradGradGradGradGradGradGradGradGradGradGradGradGradGrad

 Leave Link  103 at Wed May 14 13:28:15 2025, MaxMem=  3758096384 cpu:               0.1 elap:               0.0
 (Enter /gpfs/fs1/soft/bebop/software/custom-built/gaussian/16-c.02/g16/l202.exe)
 ---------------------------------------------------------------------------------------------------
                            Z-MATRIX (ANGSTROMS AND DEGREES)
   CD    Cent   Atom    N1       Length/X        N2       Alpha/Y        N3        Beta/Z          J
 ---------------------------------------------------------------------------------------------------
      1      1  C 
      2      2  C        1   1.503302(     1)
      3      3  H        1   1.093274(     2)      2  119.246(    16)
      4      4  C        2   1.549486(     3)      1  107.378(    17)      3  139.146(    30)      0
      5      5  H        2   1.100591(     4)      1  108.747(    18)      4  240.503(    31)      0
      6      6  H        2   1.103595(     5)      1  113.427(    19)      4  122.639(    32)      0
      7      7  C        4   1.505628(     6)      2  109.724(    20)      1  334.578(    33)      0
      8      8  H        4   1.101500(     7)      2  111.014(    21)      7  119.546(    34)      0
      9      9  H        4   1.102446(     8)      2  111.025(    22)      7  237.993(    35)      0
     10     10  C        7   2.212869(     9)      4   89.207(    23)      2   39.732(    36)      0
     11     11  O        7   1.356956(    10)      4  117.315(    24)     10  257.099(    37)      0
     12     12  H        7   1.101857(    11)      4  118.550(    25)     10  111.674(    38)      0
     13     13  H       10   1.094343(    12)      7  119.855(    26)      4  187.547(    39)      0
     14     14  H       10   1.094591(    13)      7   80.388(    27)     13  247.192(    40)      0
     15     15  O       11   1.469706(    14)      7  108.177(    28)     10  191.836(    41)      0
     16     16  H       15   0.966938(    15)     11   99.651(    29)      7  247.631(    42)      0
 ---------------------------------------------------------------------------------------------------
                         Z-Matrix orientation:                         
 ---------------------------------------------------------------------
 Center     Atomic      Atomic             Coordinates (Angstroms)
 Number     Number       Type             X           Y           Z
 ---------------------------------------------------------------------
      1          6           0        0.000000    0.000000    0.000000
      2          6           0        0.000000    0.000000    1.503302
      3          1           0        0.953916    0.000000   -0.534128
      4          6           0       -1.118500    0.967315    1.966084
      5          1           0        0.981514    0.350448    1.857020
      6          1           0       -0.144699   -1.002233    1.942065
      7          6           0       -1.376477    1.994814    0.896219
      8          1           0       -2.057798    0.423739    2.154619
      9          1           0       -0.845722    1.463832    2.911838
     10          6           0       -1.143595    0.414184   -0.634847
     11          8           0       -0.359348    2.836728    0.583236
     12          1           0       -2.384777    2.432261    0.818373
     13          1           0       -1.123978    0.682014   -1.695728
     14          1           0       -2.134727    0.152354   -0.251139
     15          8           0       -0.203051    3.796524    1.685233
     16          1           0       -0.483664    4.605728    1.236441
 ---------------------------------------------------------------------
                    Distance matrix (angstroms):
                    1          2          3          4          5
     1  C    0.000000
     2  C    1.503302   0.000000
     3  H    1.093274   2.249683   0.000000
     4  C    2.460127   1.549486   3.388460   0.000000
     5  H    2.129485   1.100591   2.416849   2.191456   0.000000
     6  H    2.190211   1.103595   2.888418   2.197267   1.762196
     7  C    2.584024   2.498504   3.384658   1.505628   3.031040
     8  H    3.009397   2.199614   4.059475   1.101500   3.054727
     9  H    3.367024   2.200459   4.154056   1.102446   2.385594
    10  C    1.372002   2.459886   2.140384   2.659215   3.275600
    11  O    2.918273   3.003777   3.319667   2.446075   3.098713
    12  H    3.503254   3.474505   4.346495   2.250948   4.092023
    13  H    2.145685   3.458651   2.476308   3.672914   4.143073
    14  H    2.154842   2.767370   3.105320   2.571567   3.767564
    15  O    4.158706   3.806300   4.547277   2.986862   3.648033
    16  H    4.793271   4.638737   5.139483   3.764763   4.543047
                    6          7          8          9         10
     6  H    0.000000
     7  C    3.404902   0.000000
     8  H    2.395521   2.125099   0.000000
     9  H    2.741052   2.150898   1.767569   0.000000
    10  C    3.105561   2.212869   2.935470   3.710723   0.000000
    11  O    4.078003   1.356956   3.343126   2.746596   2.822674
    12  H    4.251633   1.101857   2.434467   2.772930   2.779391
    13  H    4.126647   2.916400   3.970379   4.681702   1.094343
    14  H    3.178589   2.299137   2.422239   3.658679   1.094591
    15  O    4.805979   2.290335   3.877639   2.712755   4.208042
    16  H    5.662334   2.780241   4.561796   3.579044   4.637486
                   11         12         13         14         15
    11  O    0.000000
    12  H    2.078761   0.000000
    13  H    3.228177   3.312655   0.000000
    14  H    3.324757   2.530683   1.840922   0.000000
    15  O    1.469706   2.715251   4.688195   4.556411   0.000000
    16  H    1.889840   2.917700   4.939954   4.977092   0.966938
                   16
    16  H    0.000000
 Stoichiometry    C5H9O2(2)
 Framework group  C1[X(C5H9O2)]
 Deg. of freedom    42
 Full point group                 C1      NOp   1
 RotChk:  IX=0 Diff= 3.18D-16
 Largest Abelian subgroup         C1      NOp   1
 Largest concise Abelian subgroup C1      NOp   1
                         Standard orientation:                         
 ---------------------------------------------------------------------
 Center     Atomic      Atomic             Coordinates (Angstroms)
 Number     Number       Type             X           Y           Z
 ---------------------------------------------------------------------
      1          6           0        1.689583   -0.309870   -0.678926
      2          6           0        1.255080    1.108639   -0.436120
      3          1           0        1.839975   -0.654118   -1.705631
      4          6           0        0.199977    1.081715    0.698313
      5          1           0        0.813253    1.506684   -1.362214
      6          1           0        2.088316    1.784682   -0.178040
      7          6           0       -0.473354   -0.264486    0.734164
      8          1           0        0.669781    1.257570    1.678956
      9          1           0       -0.549838    1.877990    0.560069
     10          6           0        1.481353   -1.218729    0.327556
     11          8           0       -1.193117   -0.629947   -0.356574
     12          1           0       -0.865411   -0.631747    1.696193
     13          1           0        1.531503   -2.292985    0.124960
     14          1           0        1.625245   -0.947864    1.378297
     15          8           0       -2.431106    0.161928   -0.375345
     16          1           0       -3.074877   -0.539672   -0.207161
 ---------------------------------------------------------------------
 Rotational constants (GHZ):           4.5188367           1.9225402           1.6975530
 Leave Link  202 at Wed May 14 13:28:15 2025, MaxMem=  3758096384 cpu:               0.1 elap:               0.0
 (Enter /gpfs/fs1/soft/bebop/software/custom-built/gaussian/16-c.02/g16/l9999.exe)
 Unable to Open any file for archive entry.
 1\1\GINC-CSED-0032\FTS\UwB97XD\def2SVP\C5H9O2(2)\COPAN\14-May-2025\1\\
 #P wb97xd/def2svp # SCF=(xqc) # POpt=(CALCFC,TS,NOEIGEN,MAXCYCLES=60) 
 # int=ultrafine\\comment:\\0,2\C\C,1,R1\H,1,R2,2,A2\C,2,R3,1,A3,3,D3,0
 \H,2,R4,1,A4,4,D4,0\H,2,R5,1,A5,4,D5,0\C,4,R6,2,A6,1,D6,0\H,4,R7,2,A7,
 7,D7,0\H,4,R8,2,A8,7,D8,0\C,7,R9,4,A9,2,D9,0\O,7,R10,4,A10,10,D10,0\H,
 7,R11,4,A11,10,D11,0\H,10,R12,7,A12,4,D12,0\H,10,R13,7,A13,13,D13,0\O,
 11,R14,7,A14,10,D14,0\H,15,R15,11,A15,7,D15,0\\R1=1.503302\R2=1.093274
 \R3=1.549486\R4=1.100591\R5=1.103595\R6=1.505628\R7=1.1015\R8=1.102446
 \R9=2.212869\R10=1.356956\R11=1.101857\R12=1.094343\R13=1.094591\R14=1
 .469706\R15=0.966938\A2=119.245836\A3=107.377609\A4=108.746939\A5=113.
 426743\A6=109.724079\A7=111.014343\A8=111.024827\A9=89.206525\A10=117.
 314667\A11=118.550337\A12=119.854991\A13=80.388028\A14=108.176889\A15=
 99.651011\D3=139.145677\D4=240.503348\D5=122.638899\D6=334.57783\D7=11
 9.545649\D8=237.993394\D9=39.731512\D10=257.099159\D11=111.673972\D12=
 187.547186\D13=247.191661\D14=191.836123\D15=247.63123\\Version=ES64L-
 G16RevC.01\State=2-A\HF=-345.8153806\S2=0.805862\S2-1=0.\S2A=0.750759\
 RMSD=7.824e-09\RMSF=2.338e-05\Dipole=-0.5136319,0.0668677,-0.0243349\P
 olar=0.,0.,0.,0.,0.,0.\Quadrupole=-0.4312472,2.0424875,-1.6112402,-1.5
 446323,-0.2170833,-1.3362825\PG=C01 [X(C5H9O2)]\\@
 The archive entry for this job was punched.


 YOU KNOW YOU'RE A TEACHER WHEN YOU SAY 2, WRITE 3, AND MEAN 4.
 -- RONALD ANSTROM, HIGH SCHOOL TEACHER, UNDERWOOD, N.D. 1974
 Job cpu time:       0 days  0 hours 10 minutes  1.6 seconds.
 Elapsed time:       0 days  0 hours  1 minutes 43.3 seconds.
 File lengths (MBytes):  RWF=     76 Int=      0 D2E=      0 Chk=      3 Scr=      1
 Normal termination of Gaussian 16 at Wed May 14 13:28:15 2025.
