 Entering Gaussian System, Link 0=g16
 Input=run.inp
 Output=run.out
 Initial command:
 /apps/eb/gaussian/16-AVX2/g16/l1.exe "/scratch/gtemp/avcopan/Gau-2100169.inp" -scrdir="/scratch/gtemp/avcopan/"
 Entering Link 1 = /apps/eb/gaussian/16-AVX2/g16/l1.exe PID=   2100170.
  
 Copyright (c) 1988-2019, Gaussian, Inc.  All Rights Reserved.
  
 This is part of the Gaussian(R) 16 program.  It is based on
 the Gaussian(R) 09 system (copyright 2009, Gaussian, Inc.),
 the Gaussian(R) 03 system (copyright 2003, Gaussian, Inc.),
 the Gaussian(R) 98 system (copyright 1998, Gaussian, Inc.),
 the Gaussian(R) 94 system (copyright 1995, Gaussian, Inc.),
 the Gaussian 92(TM) system (copyright 1992, Gaussian, Inc.),
 the Gaussian 90(TM) system (copyright 1990, Gaussian, Inc.),
 the Gaussian 88(TM) system (copyright 1988, Gaussian, Inc.),
 the Gaussian 86(TM) system (copyright 1986, Carnegie Mellon
 University), and the Gaussian 82(TM) system (copyright 1983,
 Carnegie Mellon University). Gaussian is a federally registered
 trademark of Gaussian, Inc.
  
 This software contains proprietary and confidential information,
 including trade secrets, belonging to Gaussian, Inc.
  
 This software is provided under written license and may be
 used, copied, transmitted, or stored only in accord with that
 written license.
  
 The following legend is applicable only to US Government
 contracts under FAR:
  
                    RESTRICTED RIGHTS LEGEND
  
 Use, reproduction and disclosure by the US Government is
 subject to restrictions as set forth in subparagraphs (a)
 and (c) of the Commercial Computer Software - Restricted
 Rights clause in FAR 52.227-19.
  
 Gaussian, Inc.
 340 Quinnipiac St., Bldg. 40, Wallingford CT 06492
  
  
 ---------------------------------------------------------------
 Warning -- This program may not be used in any manner that
 competes with the business of Gaussian, Inc. or will provide
 assistance to any competitor of Gaussian, Inc.  The licensee
 of this program is prohibited from giving any competitor of
 Gaussian, Inc. access to this program.  By using this program,
 the user acknowledges that Gaussian, Inc. is engaged in the
 business of creating and licensing software in the field of
 computational chemistry and represents and warrants to the
 licensee that it is not a competitor of Gaussian, Inc. and that
 it will not use this program in any manner prohibited above.
 ---------------------------------------------------------------
  

 Cite this work as:
 Gaussian 16, Revision C.01,
 M. J. Frisch, G. W. Trucks, H. B. Schlegel, G. E. Scuseria, 
 M. A. Robb, J. R. Cheeseman, G. Scalmani, V. Barone, 
 G. A. Petersson, H. Nakatsuji, X. Li, M. Caricato, A. V. Marenich, 
 J. Bloino, B. G. Janesko, R. Gomperts, B. Mennucci, H. P. Hratchian, 
 J. V. Ortiz, A. F. Izmaylov, J. L. Sonnenberg, D. Williams-Young, 
 F. Ding, F. Lipparini, F. Egidi, J. Goings, B. Peng, A. Petrone, 
 T. Henderson, D. Ranasinghe, V. G. Zakrzewski, J. Gao, N. Rega, 
 G. Zheng, W. Liang, M. Hada, M. Ehara, K. Toyota, R. Fukuda, 
 J. Hasegawa, M. Ishida, T. Nakajima, Y. Honda, O. Kitao, H. Nakai, 
 T. Vreven, K. Throssell, J. A. Montgomery, Jr., J. E. Peralta, 
 F. Ogliaro, M. J. Bearpark, J. J. Heyd, E. N. Brothers, K. N. Kudin, 
 V. N. Staroverov, T. A. Keith, R. Kobayashi, J. Normand, 
 K. Raghavachari, A. P. Rendell, J. C. Burant, S. S. Iyengar, 
 J. Tomasi, M. Cossi, J. M. Millam, M. Klene, C. Adamo, R. Cammi, 
 J. W. Ochterski, R. L. Martin, K. Morokuma, O. Farkas, 
 J. B. Foresman, and D. J. Fox, Gaussian, Inc., Wallingford CT, 2019.
 
 ******************************************
 Gaussian 16:  ES64L-G16RevC.01  3-Jul-2019
                29-Aug-2025 
 ******************************************
 %mem=36GB
 %NProcShared=8
 Will use up to    8 processors via shared memory.
 ----------------------------------------------------------------------
 #P udsdpbep86/jun-cc-pvtz # SCF=(xqc) # POpt=(CALCFC,TS,NOEIGEN,MAXCYC
 LES=60) # Freq # int=ultrafine # empiricaldispersion=gd3bj iop(3/125=0
 079905785,3/78=0429604296,3/76=0310006900,3/74=1004,3/174=0437700,3/17
 5=-1,3/176=0,3/177=1,3/178=5500000)
 ----------------------------------------------------------------------
 1/5=1,6=60,10=4,11=1,38=1/1,3;
 2/12=2,17=6,18=5,29=3,40=1/2;
 3/5=16,6=1,7=60,11=2,25=1,30=1,71=2,74=1004,75=-5,76=310006900,78=429604296,116=2,124=41,125=79905785,140=1,174=437700,175=-1,177=1,178=5500000/1,2,3;
 4//1;
 5/5=2,8=3,13=1,38=5/2,8;
 8/6=3,8=1,10=1,19=11,30=-1/1;
 9/15=3,16=-3/6;
 11/6=1,8=1,15=11,17=12,24=-1,27=1,28=-2,29=300,32=6,42=3/1,2,10;
 10/6=2,21=1/2;
 8/6=4,8=1,10=1,19=11,30=-1/11,4;
 10/5=1,20=4/2;
 11/12=2,14=11,16=1,17=2,28=-2,42=3,76=2/2,10,12;
 6/7=2,8=2,9=2,10=2/1;
 7/10=1,12=2,25=1,44=2/1,2,3,16;
 1/5=1,6=60,10=4,11=1/3(2);
 2/29=3/2;
 99//99;
 2/29=3/2;
 3/5=16,6=1,7=60,11=2,25=1,30=1,71=1,74=1004,75=-5,76=310006900,78=429604296,116=2,124=41,125=79905785,174=437700,175=-1,177=1,178=5500000/1,2,3;
 4/5=5,16=3,69=1/1;
 5/5=2,8=3,13=1,38=5/2,8;
 8/6=4,10=1/1;
 9/15=2,16=-3/6;
 10/5=1/2;
 7/12=2/1,2,3,16;
 1/5=1,6=60,11=1/3(-8);
 2/29=3/2;
 6/7=2,8=2,9=2,10=2/1;
 99/9=10/99;
 Leave Link    1 at Fri Aug 29 15:30:50 2025, MaxMem=  4831838208 cpu:               0.9 elap:               0.1
 (Enter /apps/eb/gaussian/16-AVX2/g16/l101.exe)
 --------
 comment:
 --------
 Symbolic Z-matrix:
 Charge =  0 Multiplicity = 2
 C
 C                    1    R1
 H                    1    R2       2    A2
 C                    2    R3       1    A3       3    D3       0
 H                    2    R4       1    A4       4    D4       0
 C                    4    R5       2    A5       1    D5       0
 H                    4    R6       2    A6       6    D6       0
 H                    4    R7       2    A7       6    D7       0
 C                    6    R8       4    A8       2    D8       0
 H                    6    R9       4    A9       9    D9       0
 H                    6    R10      4    A10      9    D10      0
 H                    9    R11      6    A11      4    D11      0
 H                    9    R12      6    A12      12   D12      0
 O                    1    R13      2    A13      3    D13      0
 H                    14   R14      1    A14      2    D14      0
       Variables:
  R1                    1.34778                  
  R2                    1.09008                  
  R3                    1.5067                   
  R4                    1.09222                  
  R5                    1.5435                   
  R6                    1.10146                  
  R7                    1.10615                  
  R8                    1.54362                  
  R9                    1.10115                  
  R10                   1.09901                  
  R11                   1.10101                  
  R12                   1.10202                  
  R13                   2.35608                  
  R14                   0.97185                  
  A2                  124.79622                  
  A3                  111.53665                  
  A4                  124.65881                  
  A5                  103.12417                  
  A6                  112.92134                  
  A7                  110.18741                  
  A8                  105.51193                  
  A9                  109.10987                  
  A10                 112.78812                  
  A11                 112.82279                  
  A12                 112.30403                  
  A13                  88.1873                   
  A14                  99.74022                  
  D3                  180.03922                  
  D4                  182.85876                  
  D5                   15.07787                  
  D6                  122.26295                  
  D7                  240.64834                  
  D8                  338.63966                  
  D9                  117.52974                  
  D10                 236.34377                  
  D11                 142.19763                  
  D12                 121.19901                  
  D13                 277.72555                  
  D14                 346.38371                  
 
 ITRead=  0  0  0  0  0  0  0  0  0  0  0  0  0  0  0
 MicOpt= -1 -1 -1 -1 -1 -1 -1 -1 -1 -1 -1 -1 -1 -1 -1
 NAtoms=     15 NQM=       15 NQMF=       0 NMMI=      0 NMMIF=      0
                NMic=       0 NMicF=      0.
                    Isotopes and Nuclear Properties:
 (Nuclear quadrupole moments (NQMom) in fm**2, nuclear magnetic moments (NMagM)
  in nuclear magnetons)

  Atom         1           2           3           4           5           6           7           8           9          10
 IAtWgt=          12          12           1          12           1          12           1           1          12           1
 AtmWgt=  12.0000000  12.0000000   1.0078250  12.0000000   1.0078250  12.0000000   1.0078250   1.0078250  12.0000000   1.0078250
 NucSpn=           0           0           1           0           1           0           1           1           0           1
 AtZEff=  -0.0000000  -0.0000000  -0.0000000  -0.0000000  -0.0000000  -0.0000000  -0.0000000  -0.0000000  -0.0000000  -0.0000000
 NQMom=    0.0000000   0.0000000   0.0000000   0.0000000   0.0000000   0.0000000   0.0000000   0.0000000   0.0000000   0.0000000
 NMagM=    0.0000000   0.0000000   2.7928460   0.0000000   2.7928460   0.0000000   2.7928460   2.7928460   0.0000000   2.7928460
 AtZNuc=   6.0000000   6.0000000   1.0000000   6.0000000   1.0000000   6.0000000   1.0000000   1.0000000   6.0000000   1.0000000

  Atom        11          12          13          14          15
 IAtWgt=           1           1           1          16           1
 AtmWgt=   1.0078250   1.0078250   1.0078250  15.9949146   1.0078250
 NucSpn=           1           1           1           0           1
 AtZEff=  -0.0000000  -0.0000000  -0.0000000  -0.0000000  -0.0000000
 NQMom=    0.0000000   0.0000000   0.0000000   0.0000000   0.0000000
 NMagM=    2.7928460   2.7928460   2.7928460   0.0000000   2.7928460
 AtZNuc=   1.0000000   1.0000000   1.0000000   8.0000000   1.0000000
 Leave Link  101 at Fri Aug 29 15:30:50 2025, MaxMem=  4831838208 cpu:               0.4 elap:               0.1
 (Enter /apps/eb/gaussian/16-AVX2/g16/l103.exe)

 GradGradGradGradGradGradGradGradGradGradGradGradGradGradGradGradGradGrad
 Berny optimization.
 Initialization pass.
                       ----------------------------
                       !    Initial Parameters    !
                       ! (Angstroms and Degrees)  !
 ----------------------                            ----------------------
 !      Name          Value   Derivative information (Atomic Units)     !
 ------------------------------------------------------------------------
 !       R1          1.3478   calculate D2E/DX2 analytically            !
 !       R2          1.0901   calculate D2E/DX2 analytically            !
 !       R3          1.5067   calculate D2E/DX2 analytically            !
 !       R4          1.0922   calculate D2E/DX2 analytically            !
 !       R5          1.5435   calculate D2E/DX2 analytically            !
 !       R6          1.1015   calculate D2E/DX2 analytically            !
 !       R7          1.1062   calculate D2E/DX2 analytically            !
 !       R8          1.5436   calculate D2E/DX2 analytically            !
 !       R9          1.1011   calculate D2E/DX2 analytically            !
 !       R10         1.099    calculate D2E/DX2 analytically            !
 !       R11         1.101    calculate D2E/DX2 analytically            !
 !       R12         1.102    calculate D2E/DX2 analytically            !
 !       R13         2.3561   calculate D2E/DX2 analytically            !
 !       R14         0.9719   calculate D2E/DX2 analytically            !
 !       A2        124.7962   calculate D2E/DX2 analytically            !
 !       A3        111.5366   calculate D2E/DX2 analytically            !
 !       A4        124.6588   calculate D2E/DX2 analytically            !
 !       A5        103.1242   calculate D2E/DX2 analytically            !
 !       A6        112.9213   calculate D2E/DX2 analytically            !
 !       A7        110.1874   calculate D2E/DX2 analytically            !
 !       A8        105.5119   calculate D2E/DX2 analytically            !
 !       A9        109.1099   calculate D2E/DX2 analytically            !
 !       A10       112.7881   calculate D2E/DX2 analytically            !
 !       A11       112.8228   calculate D2E/DX2 analytically            !
 !       A12       112.304    calculate D2E/DX2 analytically            !
 !       A13        88.1873   calculate D2E/DX2 analytically            !
 !       A14        99.7402   calculate D2E/DX2 analytically            !
 !       D3        180.0392   calculate D2E/DX2 analytically            !
 !       D4        182.8588   calculate D2E/DX2 analytically            !
 !       D5         15.0779   calculate D2E/DX2 analytically            !
 !       D6        122.2629   calculate D2E/DX2 analytically            !
 !       D7        240.6483   calculate D2E/DX2 analytically            !
 !       D8        338.6397   calculate D2E/DX2 analytically            !
 !       D9        117.5297   calculate D2E/DX2 analytically            !
 !       D10       236.3438   calculate D2E/DX2 analytically            !
 !       D11       142.1976   calculate D2E/DX2 analytically            !
 !       D12       121.199    calculate D2E/DX2 analytically            !
 !       D13       277.7256   calculate D2E/DX2 analytically            !
 !       D14       346.3837   calculate D2E/DX2 analytically            !
 ------------------------------------------------------------------------
 Trust Radius=3.00D-01 FncErr=1.00D-07 GrdErr=1.00D-07 EigMax=2.50D+02 EigMin=1.00D-04
 Number of steps in this run=     60 maximum allowed number of steps=    100.
 Search for a saddle point of order  1.
 GradGradGradGradGradGradGradGradGradGradGradGradGradGradGradGradGradGrad

 Leave Link  103 at Fri Aug 29 15:30:50 2025, MaxMem=  4831838208 cpu:               0.1 elap:               0.0
 (Enter /apps/eb/gaussian/16-AVX2/g16/l202.exe)
 ---------------------------------------------------------------------------------------------------
                            Z-MATRIX (ANGSTROMS AND DEGREES)
   CD    Cent   Atom    N1       Length/X        N2       Alpha/Y        N3        Beta/Z          J
 ---------------------------------------------------------------------------------------------------
      1      1  C 
      2      2  C        1   1.347780(     1)
      3      3  H        1   1.090085(     2)      2  124.796(    15)
      4      4  C        2   1.506698(     3)      1  111.537(    16)      3  180.039(    28)      0
      5      5  H        2   1.092221(     4)      1  124.659(    17)      4  182.859(    29)      0
      6      6  C        4   1.543497(     5)      2  103.124(    18)      1   15.078(    30)      0
      7      7  H        4   1.101461(     6)      2  112.921(    19)      6  122.263(    31)      0
      8      8  H        4   1.106153(     7)      2  110.187(    20)      6  240.648(    32)      0
      9      9  C        6   1.543621(     8)      4  105.512(    21)      2  338.640(    33)      0
     10     10  H        6   1.101145(     9)      4  109.110(    22)      9  117.530(    34)      0
     11     11  H        6   1.099008(    10)      4  112.788(    23)      9  236.344(    35)      0
     12     12  H        9   1.101007(    11)      6  112.823(    24)      4  142.198(    36)      0
     13     13  H        9   1.102024(    12)      6  112.304(    25)     12  121.199(    37)      0
     14     14  O        1   2.356078(    13)      2   88.187(    26)      3  277.726(    38)      0
     15     15  H       14   0.971852(    14)      1   99.740(    27)      2  346.384(    39)      0
 ---------------------------------------------------------------------------------------------------
                         Z-Matrix orientation:                         
 ---------------------------------------------------------------------
 Center     Atomic      Atomic             Coordinates (Angstroms)
 Number     Number       Type             X           Y           Z
 ---------------------------------------------------------------------
      1          6           0        0.000000    0.000000    0.000000
      2          6           0        0.000000    0.000000    1.347780
      3          1           0        0.895164    0.000000   -0.622067
      4          6           0       -1.401504   -0.000959    1.900883
      5          1           0        0.897261    0.045422    1.968913
      6          6           0       -2.260053   -0.392572    0.679443
      7          1           0       -1.526193   -0.688500    2.752327
      8          1           0       -1.663299    1.005012    2.279116
      9          6           0       -1.398350   -0.055279   -0.556061
     10          1           0       -2.453405   -1.476252    0.707249
     11          1           0       -3.237928    0.108876    0.668108
     12          1           0       -1.504338   -0.794282   -1.365294
     13          1           0       -1.645922    0.930412   -0.982181
     14          8           0        0.316565    2.333524    0.074528
     15          1           0        0.111251    2.497502    1.010185
 ---------------------------------------------------------------------
                    Distance matrix (angstroms):
                    1          2          3          4          5
     1  C    0.000000
     2  C    1.347780   0.000000
     3  H    1.090085   2.163704   0.000000
     4  C    2.361689   1.506698   3.411739   0.000000
     5  H    2.164200   1.092221   2.591379   2.300239   0.000000
     6  C    2.392403   2.389273   3.435612   1.543497   3.438488
     7  H    3.221584   2.185418   4.209933   1.101461   2.650567
     8  H    2.995160   2.154994   3.996579   1.106153   2.752001
     9  C    1.505870   2.362848   2.295129   2.457547   3.414010
    10  H    2.949359   2.934075   3.893496   2.169734   3.890276
    11  H    3.307930   3.310285   4.331149   2.214554   4.335425
    12  H    2.181271   3.202294   2.634554   3.362715   4.194010
    13  H    2.130588   3.000574   2.729920   3.039614   3.994990
    14  O    2.356078   2.677073   2.503070   3.425952   3.026767
    15  H    2.696362   2.522670   3.084848   3.053536   2.747667
                    6          7          8          9         10
     6  C    0.000000
     7  H    2.218778   0.000000
     8  H    2.206425   1.763720   0.000000
     9  C    1.543621   3.370867   3.038526   0.000000
    10  H    1.101145   2.379626   3.041661   2.174455   0.000000
    11  H    1.099008   2.812439   2.424430   2.215758   1.769078
    12  H    2.216624   4.119038   4.067487   1.101007   2.379337
    13  H    2.210981   4.072071   3.262197   1.102024   3.049300
    14  O    3.799537   4.438355   3.247309   3.007484   4.752627
    15  H    3.752999   3.983327   2.643244   3.353910   4.739193
                   11         12         13         14         15
    11  H    0.000000
    12  H    2.820594   0.000000
    13  H    2.435746   1.772396   0.000000
    14  O    4.235070   3.895118   2.633764   0.000000
    15  H    4.127899   4.369081   3.084307   0.971852   0.000000
 Stoichiometry    C5H9O(2)
 Framework group  C1[X(C5H9O)]
 Deg. of freedom    39
 Full point group                 C1      NOp   1
 Largest Abelian subgroup         C1      NOp   1
 Largest concise Abelian subgroup C1      NOp   1
                         Standard orientation:                         
 ---------------------------------------------------------------------
 Center     Atomic      Atomic             Coordinates (Angstroms)
 Number     Number       Type             X           Y           Z
 ---------------------------------------------------------------------
      1          6           0       -0.449460    0.387831    0.880909
      2          6           0       -0.131427   -0.913050    0.729006
      3          1           0       -1.222751    0.765121    1.550206
      4          6           0        0.980613   -1.097488   -0.270738
      5          1           0       -0.643452   -1.739815    1.226236
      6          6           0        1.557279    0.326418   -0.420175
      7          1           0        1.732306   -1.833862    0.054726
      8          1           0        0.574901   -1.476843   -1.227327
      9          6           0        0.435266    1.277470    0.048175
     10          1           0        2.429738    0.433458    0.243058
     11          1           0        1.900939    0.541458   -1.441681
     12          1           0        0.816698    2.143394    0.611116
     13          1           0       -0.156530    1.672537   -0.793345
     14          8           0       -2.226601    0.052484   -0.629195
     15          1           0       -1.972669   -0.812403   -0.992494
 ---------------------------------------------------------------------
 Rotational constants (GHZ):           5.0764077           2.8256376           2.4147104
 Leave Link  202 at Fri Aug 29 15:30:50 2025, MaxMem=  4831838208 cpu:               0.1 elap:               0.0
 (Enter /apps/eb/gaussian/16-AVX2/g16/l301.exe)
 Standard basis: Jun-CC-pVTZ (5D, 7F)
 Ernie: Thresh=  0.10000D-02 Tol=  0.10000D-05 Strict=F.
 Ernie:  18 primitive shells out of 246 were deleted.
 There are   405 symmetry adapted cartesian basis functions of A   symmetry.
 There are   360 symmetry adapted basis functions of A   symmetry.
   360 basis functions,   525 primitive gaussians,   405 cartesian basis functions
    24 alpha electrons       23 beta electrons
       nuclear repulsion energy       234.6715545439 Hartrees.
 IExCor= 1004 DFT=T Ex=PBE+HF Corr=P86 ExCW=0 ScaHFX=  0.690000
 ScaDFX=  0.310000  0.310000  0.429600  0.429600 ScalE2=  0.079900  0.578500
 IRadAn=      5 IRanWt=     -1 IRanGd=            0 ICorTp=0 IEmpDi=141
 NAtoms=   15 NActive=   15 NUniq=   15 SFac= 1.00D+00 NAtFMM=   60 NAOKFM=F Big=F
 Integral buffers will be    131072 words long.
 Raffenetti 2 integral format.
 Two-electron integral symmetry is turned on.
 R6DIni: Non-standard D2/D3 S6 parameter, value=     0.437700
 R6DIni: Non-standard D2/D3 S8 parameter, value=    -1.000000
 R6DIni: Non-standard D3BJ A1 parameter, value=     0.000001
 R6DIni: Non-standard D3BJ A2 parameter, value=     5.500000
 R6Disp:  Grimme-D3(BJ) Dispersion energy=       -0.0082717335 Hartrees.
 Nuclear repulsion after empirical dispersion term =      234.6632828104 Hartrees.
 Leave Link  301 at Fri Aug 29 15:30:50 2025, MaxMem=  4831838208 cpu:               0.2 elap:               0.1
 (Enter /apps/eb/gaussian/16-AVX2/g16/l302.exe)
 NPDir=0 NMtPBC=     1 NCelOv=     1 NCel=       1 NClECP=     1 NCelD=      1
         NCelK=      1 NCelE2=     1 NClLst=     1 CellRange=     0.0.
 One-electron integrals computed using PRISM.
 One-electron integral symmetry used in STVInt
 NBasis=   360 RedAO= T EigKep=  2.48D-05  NBF=   360
 NBsUse=   360 1.00D-06 EigRej= -1.00D+00 NBFU=   360
 Precomputing XC quadrature grid using
 IXCGrd= 4 IRadAn=           5 IRanWt=          -1 IRanGd=           0 AccXCQ= 0.00D+00.
 Generated NRdTot=       0 NPtTot=           0 NUsed=           0 NTot=          32
 NSgBfM=   405   405   405   405   405 MxSgAt=    15 MxSgA2=    15.
 Leave Link  302 at Fri Aug 29 15:30:50 2025, MaxMem=  4831838208 cpu:               2.1 elap:               0.3
 (Enter /apps/eb/gaussian/16-AVX2/g16/l303.exe)
 DipDrv:  MaxL=1.
 Leave Link  303 at Fri Aug 29 15:30:50 2025, MaxMem=  4831838208 cpu:               0.3 elap:               0.1
 (Enter /apps/eb/gaussian/16-AVX2/g16/l401.exe)
 ExpMin= 3.57D-02 ExpMax= 1.53D+04 ExpMxC= 5.22D+02 IAcc=3 IRadAn=         5 AccDes= 0.00D+00
 Harris functional with IExCor= 1004 and IRadAn=       5 diagonalized for initial guess.
 HarFok:  IExCor= 1004 AccDes= 0.00D+00 IRadAn=         5 IDoV= 1 UseB2=F ITyADJ=14
 ICtDFT=  3500011 ScaDFX=  1.000000  1.000000  1.000000  1.000000
 FoFCou: FMM=F IPFlag=           0 FMFlag=      100000 FMFlg1=           0
         NFxFlg=           0 DoJE=T BraDBF=F KetDBF=T FulRan=T
         wScrn=  0.000000 ICntrl=       500 IOpCl=  0 I1Cent=   200000004 NGrid=           0
         NMat0=    1 NMatS0=      1 NMatT0=    0 NMatD0=    1 NMtDS0=    0 NMtDT0=    0
 Petite list used in FoFCou.
 Harris En= -271.105109536943    
 JPrj=0 DoOrth=F DoCkMO=F.
 Initial guess <Sx>= 0.0000 <Sy>= 0.0000 <Sz>= 0.5000 <S**2>= 0.7500 S= 0.5000
 Leave Link  401 at Fri Aug 29 15:30:52 2025, MaxMem=  4831838208 cpu:              13.4 elap:               1.7
 (Enter /apps/eb/gaussian/16-AVX2/g16/l502.exe)
 Integral symmetry usage will be decided dynamically.
 UHF open shell SCF:
 Using DIIS extrapolation, IDIIS=  1040.
 NGot=  4831838208 LenX=  4831503020 LenY=  4831338554
 Requested convergence on RMS density matrix=1.00D-08 within  32 cycles.
 Requested convergence on MAX density matrix=1.00D-06.
 Requested convergence on             energy=1.00D-06.
 No special actions if energy rises.
 Fock matrices will be formed incrementally for  20 cycles.

 Cycle   1  Pass 1  IDiag  1:
 FoFJK:  IHMeth= 1 ICntrl=       0 DoSepK=F KAlg= 0 I1Cent=           0 FoldK=F
 IRaf= 990000000 NMat=       1 IRICut=       1 DoRegI=T DoRafI=F ISym2E= 0 IDoP0=0 IntGTp=1.
 FoFCou: FMM=F IPFlag=           0 FMFlag=      100000 FMFlg1=           0
         NFxFlg=           0 DoJE=F BraDBF=F KetDBF=F FulRan=T
         wScrn=  0.000000 ICntrl=         0 IOpCl=  1 I1Cent=           0 NGrid=           0
         NMat0=    1 NMatS0=      1 NMatT0=    0 NMatD0=    1 NMtDS0=    0 NMtDT0=    0
 Symmetry not used in FoFCou.
 E= -269.820116739705    
 DIIS: error= 2.10D-02 at cycle   1 NSaved=   1.
 NSaved= 1 IEnMin= 1 EnMin= -269.820116739705     IErMin= 1 ErrMin= 2.10D-02
 ErrMax= 2.10D-02  0.00D+00 EMaxC= 1.00D-01 BMatC= 1.33D+00 BMatP= 1.33D+00
 IDIUse=3 WtCom= 7.90D-01 WtEn= 2.10D-01
 Coeff-Com:  0.100D+01
 Coeff-En:   0.100D+01
 Coeff:      0.100D+01
 Gap=     0.328 Goal=   None    Shift=    0.000
 Gap=     0.209 Goal=   None    Shift=    0.000
 GapD=    0.209 DampG=1.000 DampE=0.500 DampFc=0.5000 IDamp=-1.
 Damping current iteration by 5.00D-01
 RMSDP=2.29D-03 MaxDP=7.95D-02              OVMax= 3.98D-01

 Cycle   2  Pass 1  IDiag  1:
 RMSU=  1.14D-03    CP:  9.87D-01
 E= -269.948239360802     Delta-E=       -0.128122621097 Rises=F Damp=T
 DIIS: error= 6.09D-03 at cycle   2 NSaved=   2.
 NSaved= 2 IEnMin= 2 EnMin= -269.948239360802     IErMin= 2 ErrMin= 6.09D-03
 ErrMax= 6.09D-03  0.00D+00 EMaxC= 1.00D-01 BMatC= 1.55D-01 BMatP= 1.33D+00
 IDIUse=3 WtCom= 9.39D-01 WtEn= 6.09D-02
 Coeff-Com: -0.770D-01 0.108D+01
 Coeff-En:   0.000D+00 0.100D+01
 Coeff:     -0.723D-01 0.107D+01
 Gap=     0.435 Goal=   None    Shift=    0.000
 Gap=     0.415 Goal=   None    Shift=    0.000
 RMSDP=7.53D-04 MaxDP=3.48D-02 DE=-1.28D-01 OVMax= 1.67D-01

 Cycle   3  Pass 1  IDiag  1:
 RMSU=  7.27D-04    CP:  9.84D-01  8.30D-01
 E= -270.085894904280     Delta-E=       -0.137655543478 Rises=F Damp=F
 DIIS: error= 6.02D-03 at cycle   3 NSaved=   3.
 NSaved= 3 IEnMin= 3 EnMin= -270.085894904280     IErMin= 3 ErrMin= 6.02D-03
 ErrMax= 6.02D-03  0.00D+00 EMaxC= 1.00D-01 BMatC= 3.69D-02 BMatP= 1.55D-01
 IDIUse=3 WtCom= 9.40D-01 WtEn= 6.02D-02
 Coeff-Com: -0.998D-01 0.316D+00 0.783D+00
 Coeff-En:   0.000D+00 0.000D+00 0.100D+01
 Coeff:     -0.938D-01 0.297D+00 0.797D+00
 Gap=     0.364 Goal=   None    Shift=    0.000
 Gap=     0.268 Goal=   None    Shift=    0.000
 RMSDP=2.76D-04 MaxDP=1.73D-02 DE=-1.38D-01 OVMax= 1.57D-01

 Cycle   4  Pass 1  IDiag  1:
 RMSU=  2.62D-04    CP:  9.83D-01  9.05D-01  1.03D+00
 E= -270.098832207959     Delta-E=       -0.012937303679 Rises=F Damp=F
 DIIS: error= 3.05D-03 at cycle   4 NSaved=   4.
 NSaved= 4 IEnMin= 4 EnMin= -270.098832207959     IErMin= 4 ErrMin= 3.05D-03
 ErrMax= 3.05D-03  0.00D+00 EMaxC= 1.00D-01 BMatC= 1.72D-02 BMatP= 3.69D-02
 IDIUse=3 WtCom= 9.69D-01 WtEn= 3.05D-02
 Coeff-Com: -0.255D-01 0.147D-01 0.421D+00 0.590D+00
 Coeff-En:   0.000D+00 0.000D+00 0.000D+00 0.100D+01
 Coeff:     -0.248D-01 0.142D-01 0.408D+00 0.602D+00
 Gap=     0.355 Goal=   None    Shift=    0.000
 Gap=     0.285 Goal=   None    Shift=    0.000
 RMSDP=1.61D-04 MaxDP=6.36D-03 DE=-1.29D-02 OVMax= 3.56D-02

 Cycle   5  Pass 1  IDiag  1:
 RMSU=  1.36D-04    CP:  9.82D-01  8.51D-01  1.11D+00  9.60D-01
 E= -270.104697195254     Delta-E=       -0.005864987295 Rises=F Damp=F
 DIIS: error= 1.77D-03 at cycle   5 NSaved=   5.
 NSaved= 5 IEnMin= 5 EnMin= -270.104697195254     IErMin= 5 ErrMin= 1.77D-03
 ErrMax= 1.77D-03  0.00D+00 EMaxC= 1.00D-01 BMatC= 2.86D-03 BMatP= 1.72D-02
 IDIUse=3 WtCom= 9.82D-01 WtEn= 1.77D-02
 Coeff-Com:  0.348D-01-0.766D-01-0.160D+00-0.381D+00 0.158D+01
 Coeff-En:   0.000D+00 0.000D+00 0.000D+00 0.000D+00 0.100D+01
 Coeff:      0.342D-01-0.752D-01-0.157D+00-0.374D+00 0.157D+01
 Gap=     0.348 Goal=   None    Shift=    0.000
 Gap=     0.305 Goal=   None    Shift=    0.000
 RMSDP=2.15D-04 MaxDP=8.00D-03 DE=-5.86D-03 OVMax= 9.27D-02

 Cycle   6  Pass 1  IDiag  1:
 RMSU=  7.58D-05    CP:  9.82D-01  7.76D-01  1.18D+00  1.22D+00  2.19D+00
 E= -270.108919285192     Delta-E=       -0.004222089938 Rises=F Damp=F
 DIIS: error= 1.10D-03 at cycle   6 NSaved=   6.
 NSaved= 6 IEnMin= 6 EnMin= -270.108919285192     IErMin= 6 ErrMin= 1.10D-03
 ErrMax= 1.10D-03  0.00D+00 EMaxC= 1.00D-01 BMatC= 6.21D-04 BMatP= 2.86D-03
 IDIUse=3 WtCom= 9.89D-01 WtEn= 1.10D-02
 Coeff-Com:  0.126D-02 0.160D-01-0.670D-01-0.213D+00-0.158D+00 0.142D+01
 Coeff-En:   0.000D+00 0.000D+00 0.000D+00 0.000D+00 0.000D+00 0.100D+01
 Coeff:      0.125D-02 0.158D-01-0.663D-01-0.211D+00-0.157D+00 0.142D+01
 Gap=     0.341 Goal=   None    Shift=    0.000
 Gap=     0.319 Goal=   None    Shift=    0.000
 RMSDP=1.45D-04 MaxDP=5.07D-03 DE=-4.22D-03 OVMax= 6.14D-02

 Cycle   7  Pass 1  IDiag  1:
 RMSU=  3.56D-05    CP:  9.82D-01  7.33D-01  1.20D+00  1.36D+00  3.00D+00
                    CP:  1.65D+00
 E= -270.109996461781     Delta-E=       -0.001077176589 Rises=F Damp=F
 DIIS: error= 3.67D-04 at cycle   7 NSaved=   7.
 NSaved= 7 IEnMin= 7 EnMin= -270.109996461781     IErMin= 7 ErrMin= 3.67D-04
 ErrMax= 3.67D-04  0.00D+00 EMaxC= 1.00D-01 BMatC= 5.82D-05 BMatP= 6.21D-04
 IDIUse=3 WtCom= 9.96D-01 WtEn= 3.67D-03
 Coeff-Com: -0.703D-02 0.784D-02 0.492D-01 0.147D+00-0.839D-01-0.489D+00
 Coeff-Com:  0.138D+01
 Coeff-En:   0.000D+00 0.000D+00 0.000D+00 0.000D+00 0.000D+00 0.000D+00
 Coeff-En:   0.100D+01
 Coeff:     -0.700D-02 0.781D-02 0.491D-01 0.146D+00-0.836D-01-0.487D+00
 Coeff:      0.137D+01
 Gap=     0.341 Goal=   None    Shift=    0.000
 Gap=     0.316 Goal=   None    Shift=    0.000
 RMSDP=2.45D-05 MaxDP=8.68D-04 DE=-1.08D-03 OVMax= 6.87D-03

 Cycle   8  Pass 1  IDiag  1:
 RMSU=  1.42D-05    CP:  9.82D-01  7.39D-01  1.19D+00  1.38D+00  3.00D+00
                    CP:  1.77D+00  1.41D+00
 E= -270.110037922307     Delta-E=       -0.000041460526 Rises=F Damp=F
 DIIS: error= 1.38D-04 at cycle   8 NSaved=   8.
 NSaved= 8 IEnMin= 8 EnMin= -270.110037922307     IErMin= 8 ErrMin= 1.38D-04
 ErrMax= 1.38D-04  0.00D+00 EMaxC= 1.00D-01 BMatC= 3.95D-05 BMatP= 5.82D-05
 IDIUse=3 WtCom= 9.99D-01 WtEn= 1.38D-03
 Coeff-Com: -0.915D-03-0.959D-03 0.202D-01 0.350D-01-0.293D-01-0.251D+00
 Coeff-Com:  0.390D+00 0.836D+00
 Coeff-En:   0.000D+00 0.000D+00 0.000D+00 0.000D+00 0.000D+00 0.000D+00
 Coeff-En:   0.000D+00 0.100D+01
 Coeff:     -0.914D-03-0.958D-03 0.202D-01 0.350D-01-0.293D-01-0.250D+00
 Coeff:      0.390D+00 0.836D+00
 Gap=     0.340 Goal=   None    Shift=    0.000
 Gap=     0.318 Goal=   None    Shift=    0.000
 RMSDP=1.96D-05 MaxDP=6.70D-04 DE=-4.15D-05 OVMax= 6.78D-03

 Cycle   9  Pass 1  IDiag  1:
 RMSU=  1.45D-05    CP:  9.82D-01  7.33D-01  1.19D+00  1.39D+00  3.00D+00
                    CP:  1.87D+00  1.61D+00  9.63D-01
 E= -270.110061040671     Delta-E=       -0.000023118364 Rises=F Damp=F
 DIIS: error= 5.92D-05 at cycle   9 NSaved=   9.
 NSaved= 9 IEnMin= 9 EnMin= -270.110061040671     IErMin= 9 ErrMin= 5.92D-05
 ErrMax= 5.92D-05  0.00D+00 EMaxC= 1.00D-01 BMatC= 2.83D-06 BMatP= 3.95D-05
 IDIUse=1 WtCom= 1.00D+00 WtEn= 0.00D+00
 Coeff-Com:  0.141D-02-0.200D-02-0.537D-02-0.262D-01 0.845D-02 0.597D-01
 Coeff-Com: -0.188D+00 0.114D+00 0.104D+01
 Coeff:      0.141D-02-0.200D-02-0.537D-02-0.262D-01 0.845D-02 0.597D-01
 Coeff:     -0.188D+00 0.114D+00 0.104D+01
 Gap=     0.339 Goal=   None    Shift=    0.000
 Gap=     0.319 Goal=   None    Shift=    0.000
 RMSDP=7.08D-06 MaxDP=3.02D-04 DE=-2.31D-05 OVMax= 2.13D-03

 Cycle  10  Pass 1  IDiag  1:
 RMSU=  2.86D-06    CP:  9.82D-01  7.31D-01  1.19D+00  1.39D+00  3.00D+00
                    CP:  1.89D+00  1.68D+00  1.02D+00  1.33D+00
 E= -270.110063554271     Delta-E=       -0.000002513600 Rises=F Damp=F
 DIIS: error= 5.30D-05 at cycle  10 NSaved=  10.
 NSaved=10 IEnMin=10 EnMin= -270.110063554271     IErMin=10 ErrMin= 5.30D-05
 ErrMax= 5.30D-05  0.00D+00 EMaxC= 1.00D-01 BMatC= 1.91D-06 BMatP= 2.83D-06
 IDIUse=1 WtCom= 1.00D+00 WtEn= 0.00D+00
 Coeff-Com:  0.300D-03 0.506D-04-0.583D-02-0.823D-02 0.115D-01 0.582D-01
 Coeff-Com: -0.119D+00-0.806D-01 0.838D-01 0.106D+01
 Coeff:      0.300D-03 0.506D-04-0.583D-02-0.823D-02 0.115D-01 0.582D-01
 Coeff:     -0.119D+00-0.806D-01 0.838D-01 0.106D+01
 Gap=     0.340 Goal=   None    Shift=    0.000
 Gap=     0.319 Goal=   None    Shift=    0.000
 RMSDP=3.80D-06 MaxDP=1.86D-04 DE=-2.51D-06 OVMax= 1.24D-03

 Cycle  11  Pass 1  IDiag  1:
 RMSU=  2.08D-06    CP:  9.82D-01  7.32D-01  1.19D+00  1.39D+00  3.00D+00
                    CP:  1.88D+00  1.67D+00  1.12D+00  1.26D+00  1.82D+00
 E= -270.110065583073     Delta-E=       -0.000002028802 Rises=F Damp=F
 DIIS: error= 3.82D-05 at cycle  11 NSaved=  11.
 NSaved=11 IEnMin=11 EnMin= -270.110065583073     IErMin=11 ErrMin= 3.82D-05
 ErrMax= 3.82D-05  0.00D+00 EMaxC= 1.00D-01 BMatC= 6.98D-07 BMatP= 1.91D-06
 IDIUse=1 WtCom= 1.00D+00 WtEn= 0.00D+00
 Coeff-Com: -0.355D-03 0.572D-03 0.368D-03 0.553D-02-0.183D-02-0.861D-02
 Coeff-Com:  0.302D-01-0.996D-02-0.327D+00-0.146D+00 0.146D+01
 Coeff:     -0.355D-03 0.572D-03 0.368D-03 0.553D-02-0.183D-02-0.861D-02
 Coeff:      0.302D-01-0.996D-02-0.327D+00-0.146D+00 0.146D+01
 Gap=     0.340 Goal=   None    Shift=    0.000
 Gap=     0.319 Goal=   None    Shift=    0.000
 RMSDP=3.94D-06 MaxDP=2.05D-04 DE=-2.03D-06 OVMax= 1.35D-03

 Cycle  12  Pass 1  IDiag  1:
 RMSU=  9.70D-07    CP:  9.82D-01  7.32D-01  1.19D+00  1.39D+00  3.00D+00
                    CP:  1.88D+00  1.68D+00  1.19D+00  1.27D+00  2.86D+00
                    CP:  1.97D+00
 E= -270.110067339657     Delta-E=       -0.000001756584 Rises=F Damp=F
 DIIS: error= 3.35D-05 at cycle  12 NSaved=  12.
 NSaved=12 IEnMin=12 EnMin= -270.110067339657     IErMin=12 ErrMin= 3.35D-05
 ErrMax= 3.35D-05  0.00D+00 EMaxC= 1.00D-01 BMatC= 4.07D-07 BMatP= 6.98D-07
 IDIUse=1 WtCom= 1.00D+00 WtEn= 0.00D+00
 Coeff-Com:  0.742D-04-0.389D-03 0.301D-02-0.116D-02-0.123D-01-0.268D-01
 Coeff-Com:  0.630D-01 0.839D-01-0.126D-01-0.117D+01 0.348D+00 0.173D+01
 Coeff:      0.742D-04-0.389D-03 0.301D-02-0.116D-02-0.123D-01-0.268D-01
 Coeff:      0.630D-01 0.839D-01-0.126D-01-0.117D+01 0.348D+00 0.173D+01
 Gap=     0.340 Goal=   None    Shift=    0.000
 Gap=     0.319 Goal=   None    Shift=    0.000
 RMSDP=6.18D-06 MaxDP=3.71D-04 DE=-1.76D-06 OVMax= 2.16D-03

 Cycle  13  Pass 1  IDiag  1:
 RMSU=  4.17D-06    CP:  9.82D-01  7.32D-01  1.19D+00  1.39D+00  3.00D+00
                    CP:  1.89D+00  1.70D+00  1.27D+00  1.41D+00  3.00D+00
                    CP:  3.00D+00  2.64D+00
 E= -270.110069190736     Delta-E=       -0.000001851079 Rises=F Damp=F
 DIIS: error= 1.26D-05 at cycle  13 NSaved=  13.
 NSaved=13 IEnMin=13 EnMin= -270.110069190736     IErMin=13 ErrMin= 1.26D-05
 ErrMax= 1.26D-05  0.00D+00 EMaxC= 1.00D-01 BMatC= 1.68D-07 BMatP= 4.07D-07
 IDIUse=1 WtCom= 1.00D+00 WtEn= 0.00D+00
 Coeff-Com:  0.207D-03-0.283D-03-0.819D-03-0.237D-02 0.275D-02 0.114D-01
 Coeff-Com: -0.309D-01 0.188D-01 0.161D+00 0.206D+00-0.761D+00-0.236D+00
 Coeff-Com:  0.163D+01
 Coeff:      0.207D-03-0.283D-03-0.819D-03-0.237D-02 0.275D-02 0.114D-01
 Coeff:     -0.309D-01 0.188D-01 0.161D+00 0.206D+00-0.761D+00-0.236D+00
 Coeff:      0.163D+01
 Gap=     0.340 Goal=   None    Shift=    0.000
 Gap=     0.319 Goal=   None    Shift=    0.000
 RMSDP=4.14D-06 MaxDP=2.31D-04 DE=-1.85D-06 OVMax= 1.39D-03

 Cycle  14  Pass 1  IDiag  1:
 RMSU=  2.01D-06    CP:  9.82D-01  7.32D-01  1.19D+00  1.39D+00  3.00D+00
                    CP:  1.89D+00  1.71D+00  1.33D+00  1.44D+00  3.00D+00
                    CP:  3.00D+00  3.00D+00  1.80D+00
 E= -270.110069895841     Delta-E=       -0.000000705105 Rises=F Damp=F
 DIIS: error= 8.65D-06 at cycle  14 NSaved=  14.
 NSaved=14 IEnMin=14 EnMin= -270.110069895841     IErMin=14 ErrMin= 8.65D-06
 ErrMax= 8.65D-06  0.00D+00 EMaxC= 1.00D-01 BMatC= 5.12D-08 BMatP= 1.68D-07
 IDIUse=1 WtCom= 1.00D+00 WtEn= 0.00D+00
 Coeff-Com: -0.735D-04 0.177D-03-0.717D-03 0.114D-02 0.344D-02 0.571D-02
 Coeff-Com: -0.147D-01-0.208D-01-0.167D-01 0.330D+00-0.439D-01-0.489D+00
 Coeff-Com: -0.196D+00 0.144D+01
 Coeff:     -0.735D-04 0.177D-03-0.717D-03 0.114D-02 0.344D-02 0.571D-02
 Coeff:     -0.147D-01-0.208D-01-0.167D-01 0.330D+00-0.439D-01-0.489D+00
 Coeff:     -0.196D+00 0.144D+01
 Gap=     0.340 Goal=   None    Shift=    0.000
 Gap=     0.319 Goal=   None    Shift=    0.000
 RMSDP=2.01D-06 MaxDP=1.05D-04 DE=-7.05D-07 OVMax= 6.19D-04

 Cycle  15  Pass 1  IDiag  1:
 RMSU=  4.58D-07    CP:  9.82D-01  7.33D-01  1.19D+00  1.39D+00  3.00D+00
                    CP:  1.89D+00  1.71D+00  1.37D+00  1.43D+00  3.00D+00
                    CP:  3.00D+00  3.00D+00  2.16D+00  1.55D+00
 E= -270.110070078612     Delta-E=       -0.000000182771 Rises=F Damp=F
 DIIS: error= 7.79D-06 at cycle  15 NSaved=  15.
 NSaved=15 IEnMin=15 EnMin= -270.110070078612     IErMin=15 ErrMin= 7.79D-06
 ErrMax= 7.79D-06  0.00D+00 EMaxC= 1.00D-01 BMatC= 3.17D-08 BMatP= 5.12D-08
 IDIUse=1 WtCom= 1.00D+00 WtEn= 0.00D+00
 Coeff-Com: -0.345D-04 0.502D-04 0.192D-03-0.136D-03-0.147D-02-0.216D-02
 Coeff-Com:  0.637D-02-0.721D-02-0.303D-01-0.733D-01 0.217D+00 0.949D-01
 Coeff-Com: -0.498D+00 0.719D-01 0.122D+01
 Coeff:     -0.345D-04 0.502D-04 0.192D-03-0.136D-03-0.147D-02-0.216D-02
 Coeff:      0.637D-02-0.721D-02-0.303D-01-0.733D-01 0.217D+00 0.949D-01
 Coeff:     -0.498D+00 0.719D-01 0.122D+01
 Gap=     0.340 Goal=   None    Shift=    0.000
 Gap=     0.319 Goal=   None    Shift=    0.000
 RMSDP=8.11D-07 MaxDP=6.59D-05 DE=-1.83D-07 OVMax= 3.42D-04

 Cycle  16  Pass 1  IDiag  1:
 RMSU=  2.24D-07    CP:  9.82D-01  7.33D-01  1.19D+00  1.40D+00  3.00D+00
                    CP:  1.89D+00  1.72D+00  1.37D+00  1.46D+00  3.00D+00
                    CP:  3.00D+00  3.00D+00  2.24D+00  1.71D+00  1.95D+00
 E= -270.110070150628     Delta-E=       -0.000000072016 Rises=F Damp=F
 DIIS: error= 7.10D-06 at cycle  16 NSaved=  16.
 NSaved=16 IEnMin=16 EnMin= -270.110070150628     IErMin=16 ErrMin= 7.10D-06
 ErrMax= 7.10D-06  0.00D+00 EMaxC= 1.00D-01 BMatC= 1.92D-08 BMatP= 3.17D-08
 IDIUse=1 WtCom= 1.00D+00 WtEn= 0.00D+00
 Coeff-Com: -0.158D-05-0.416D-04 0.511D-03 0.477D-03-0.149D-02-0.452D-02
 Coeff-Com:  0.104D-01 0.116D-01-0.158D-02-0.136D+00 0.396D-02 0.198D+00
 Coeff-Com:  0.160D+00-0.729D+00-0.229D+00 0.172D+01
 Coeff:     -0.158D-05-0.416D-04 0.511D-03 0.477D-03-0.149D-02-0.452D-02
 Coeff:      0.104D-01 0.116D-01-0.158D-02-0.136D+00 0.396D-02 0.198D+00
 Coeff:      0.160D+00-0.729D+00-0.229D+00 0.172D+01
 Gap=     0.340 Goal=   None    Shift=    0.000
 Gap=     0.319 Goal=   None    Shift=    0.000
 RMSDP=8.93D-07 MaxDP=9.01D-05 DE=-7.20D-08 OVMax= 4.93D-04

 Cycle  17  Pass 1  IDiag  1:
 RMSU=  2.27D-07    CP:  9.82D-01  7.33D-01  1.19D+00  1.40D+00  3.00D+00
                    CP:  1.89D+00  1.72D+00  1.37D+00  1.46D+00  3.00D+00
                    CP:  3.00D+00  3.00D+00  2.33D+00  1.91D+00  3.00D+00
                    CP:  2.55D+00
 E= -270.110070228723     Delta-E=       -0.000000078095 Rises=F Damp=F
 DIIS: error= 6.14D-06 at cycle  17 NSaved=  17.
 NSaved=17 IEnMin=17 EnMin= -270.110070228723     IErMin=17 ErrMin= 6.14D-06
 ErrMax= 6.14D-06  0.00D+00 EMaxC= 1.00D-01 BMatC= 1.31D-08 BMatP= 1.92D-08
 IDIUse=1 WtCom= 1.00D+00 WtEn= 0.00D+00
 Coeff-Com:  0.151D-05 0.198D-04-0.298D-03 0.474D-03 0.192D-02 0.341D-02
 Coeff-Com: -0.835D-02-0.420D-02 0.969D-02 0.159D+00-0.135D+00-0.250D+00
 Coeff-Com:  0.273D+00 0.477D+00-0.812D+00-0.113D+01 0.241D+01
 Coeff:      0.151D-05 0.198D-04-0.298D-03 0.474D-03 0.192D-02 0.341D-02
 Coeff:     -0.835D-02-0.420D-02 0.969D-02 0.159D+00-0.135D+00-0.250D+00
 Coeff:      0.273D+00 0.477D+00-0.812D+00-0.113D+01 0.241D+01
 Gap=     0.340 Goal=   None    Shift=    0.000
 Gap=     0.319 Goal=   None    Shift=    0.000
 RMSDP=1.19D-06 MaxDP=1.30D-04 DE=-7.81D-08 OVMax= 6.93D-04

 Cycle  18  Pass 1  IDiag  1:
 RMSU=  7.64D-07    CP:  9.82D-01  7.33D-01  1.19D+00  1.40D+00  3.00D+00
                    CP:  1.89D+00  1.71D+00  1.38D+00  1.46D+00  3.00D+00
                    CP:  3.00D+00  3.00D+00  2.40D+00  2.12D+00  3.00D+00
                    CP:  3.00D+00  3.00D+00
 E= -270.110070308425     Delta-E=       -0.000000079703 Rises=F Damp=F
 DIIS: error= 4.67D-06 at cycle  18 NSaved=  18.
 NSaved=18 IEnMin=18 EnMin= -270.110070308425     IErMin=18 ErrMin= 4.67D-06
 ErrMax= 4.67D-06  0.00D+00 EMaxC= 1.00D-01 BMatC= 9.90D-09 BMatP= 1.31D-08
 IDIUse=1 WtCom= 1.00D+00 WtEn= 0.00D+00
 Coeff-Com:  0.156D-05 0.232D-04-0.204D-03-0.780D-03 0.518D-04 0.203D-02
 Coeff-Com: -0.434D-02-0.111D-01 0.326D-02 0.467D-01 0.597D-01-0.723D-01
 Coeff-Com: -0.226D+00 0.444D+00 0.363D+00-0.853D+00-0.101D+01 0.226D+01
 Coeff:      0.156D-05 0.232D-04-0.204D-03-0.780D-03 0.518D-04 0.203D-02
 Coeff:     -0.434D-02-0.111D-01 0.326D-02 0.467D-01 0.597D-01-0.723D-01
 Coeff:     -0.226D+00 0.444D+00 0.363D+00-0.853D+00-0.101D+01 0.226D+01
 Gap=     0.340 Goal=   None    Shift=    0.000
 Gap=     0.319 Goal=   None    Shift=    0.000
 RMSDP=1.39D-06 MaxDP=1.59D-04 DE=-7.97D-08 OVMax= 7.90D-04

 Cycle  19  Pass 1  IDiag  1:
 RMSU=  5.40D-07    CP:  9.82D-01  7.33D-01  1.19D+00  1.40D+00  3.00D+00
                    CP:  1.89D+00  1.72D+00  1.38D+00  1.47D+00  3.00D+00
                    CP:  3.00D+00  3.00D+00  2.44D+00  2.29D+00  3.00D+00
                    CP:  3.00D+00  3.00D+00  2.57D+00
 E= -270.110070380416     Delta-E=       -0.000000071991 Rises=F Damp=F
 DIIS: error= 2.86D-06 at cycle  19 NSaved=  19.
 NSaved=19 IEnMin=19 EnMin= -270.110070380416     IErMin=19 ErrMin= 2.86D-06
 ErrMax= 2.86D-06  0.00D+00 EMaxC= 1.00D-01 BMatC= 4.77D-09 BMatP= 9.90D-09
 IDIUse=1 WtCom= 1.00D+00 WtEn= 0.00D+00
 Coeff-Com: -0.301D-04 0.204D-04 0.291D-03 0.406D-03-0.982D-03-0.405D-02
 Coeff-Com:  0.807D-02 0.429D-02-0.124D-01-0.101D+00 0.817D-01 0.158D+00
 Coeff-Com: -0.168D+00-0.366D+00 0.561D+00 0.936D+00-0.188D+01-0.259D-01
 Coeff-Com:  0.181D+01
 Coeff:     -0.301D-04 0.204D-04 0.291D-03 0.406D-03-0.982D-03-0.405D-02
 Coeff:      0.807D-02 0.429D-02-0.124D-01-0.101D+00 0.817D-01 0.158D+00
 Coeff:     -0.168D+00-0.366D+00 0.561D+00 0.936D+00-0.188D+01-0.259D-01
 Coeff:      0.181D+01
 Gap=     0.340 Goal=   None    Shift=    0.000
 Gap=     0.319 Goal=   None    Shift=    0.000
 RMSDP=1.36D-06 MaxDP=1.60D-04 DE=-7.20D-08 OVMax= 7.97D-04

 Cycle  20  Pass 1  IDiag  1:
 RMSU=  8.01D-07    CP:  9.82D-01  7.33D-01  1.19D+00  1.40D+00  3.00D+00
                    CP:  1.89D+00  1.71D+00  1.38D+00  1.47D+00  3.00D+00
                    CP:  3.00D+00  3.00D+00  2.50D+00  2.50D+00  3.00D+00
                    CP:  3.00D+00  3.00D+00  3.00D+00  2.01D+00
 E= -270.110070402778     Delta-E=       -0.000000022361 Rises=F Damp=F
 DIIS: error= 9.92D-07 at cycle  20 NSaved=  20.
 NSaved=20 IEnMin=20 EnMin= -270.110070402778     IErMin=20 ErrMin= 9.92D-07
 ErrMax= 9.92D-07  0.00D+00 EMaxC= 1.00D-01 BMatC= 7.80D-10 BMatP= 4.77D-09
 IDIUse=1 WtCom= 1.00D+00 WtEn= 0.00D+00
 Coeff-Com:  0.288D-04-0.379D-04-0.112D-03-0.202D-03 0.330D-03 0.170D-02
 Coeff-Com: -0.317D-02 0.210D-02 0.830D-02 0.117D-01-0.567D-01-0.108D-01
 Coeff-Com:  0.152D+00-0.108D+00-0.282D+00 0.867D-01 0.901D+00-0.817D+00
 Coeff-Com: -0.620D+00 0.174D+01
 Coeff:      0.288D-04-0.379D-04-0.112D-03-0.202D-03 0.330D-03 0.170D-02
 Coeff:     -0.317D-02 0.210D-02 0.830D-02 0.117D-01-0.567D-01-0.108D-01
 Coeff:      0.152D+00-0.108D+00-0.282D+00 0.867D-01 0.901D+00-0.817D+00
 Coeff:     -0.620D+00 0.174D+01
 Gap=     0.340 Goal=   None    Shift=    0.000
 Gap=     0.319 Goal=   None    Shift=    0.000
 RMSDP=6.16D-07 MaxDP=7.39D-05 DE=-2.24D-08 OVMax= 3.56D-04

 Cycle  21  Pass 1  IDiag  1:
 Restarting incremental Fock formation.
 E= -270.110070408296     Delta-E=       -0.000000005518 Rises=F Damp=F
 DIIS: error= 2.18D-07 at cycle  21 NSaved=  20.
 NSaved=20 IEnMin=20 EnMin= -270.110070408296     IErMin=20 ErrMin= 2.18D-07
 ErrMax= 2.18D-07  0.00D+00 EMaxC= 1.00D-01 BMatC= 9.02D-11 BMatP= 7.80D-10
 IDIUse=1 WtCom= 1.00D+00 WtEn= 0.00D+00
 Coeff-Com:  0.193D-05-0.209D-04-0.436D-04 0.131D-03 0.268D-03-0.705D-03
 Coeff-Com: -0.953D-03 0.116D-02 0.121D-01-0.816D-02-0.134D-01 0.105D-02
 Coeff-Com:  0.630D-01-0.391D-01-0.113D+00 0.551D-01 0.188D+00-0.115D+00
 Coeff-Com: -0.431D+00 0.140D+01
 Coeff:      0.193D-05-0.209D-04-0.436D-04 0.131D-03 0.268D-03-0.705D-03
 Coeff:     -0.953D-03 0.116D-02 0.121D-01-0.816D-02-0.134D-01 0.105D-02
 Coeff:      0.630D-01-0.391D-01-0.113D+00 0.551D-01 0.188D+00-0.115D+00
 Coeff:     -0.431D+00 0.140D+01
 Gap=     0.340 Goal=   None    Shift=    0.000
 Gap=     0.319 Goal=   None    Shift=    0.000
 RMSDP=1.01D-07 MaxDP=1.17D-05 DE=-5.52D-09 OVMax= 5.50D-05

 Cycle  22  Pass 1  IDiag  1:
 RMSU=  1.01D-07    CP:  1.00D+00
 E= -270.110070401266     Delta-E=        0.000000007030 Rises=F Damp=F
 DIIS: error= 7.95D-08 at cycle  22 NSaved=  20.
 NSaved=20 IEnMin=19 EnMin= -270.110070408296     IErMin=20 ErrMin= 7.95D-08
 ErrMax= 7.95D-08  0.00D+00 EMaxC= 1.00D-01 BMatC= 1.24D-11 BMatP= 9.02D-11
 IDIUse=1 WtCom= 1.00D+00 WtEn= 0.00D+00
 Coeff-Com: -0.540D-05-0.198D-04 0.162D-04-0.236D-04 0.323D-06-0.236D-03
 Coeff-Com:  0.442D-03 0.667D-03 0.117D-02-0.364D-03-0.822D-02 0.111D-01
 Coeff-Com:  0.139D-01-0.116D-01-0.695D-01 0.850D-01 0.416D-01-0.172D+00
 Coeff-Com: -0.170D-01 0.113D+01
 Coeff:     -0.540D-05-0.198D-04 0.162D-04-0.236D-04 0.323D-06-0.236D-03
 Coeff:      0.442D-03 0.667D-03 0.117D-02-0.364D-03-0.822D-02 0.111D-01
 Coeff:      0.139D-01-0.116D-01-0.695D-01 0.850D-01 0.416D-01-0.172D+00
 Coeff:     -0.170D-01 0.113D+01
 Gap=     0.340 Goal=   None    Shift=    0.000
 Gap=     0.319 Goal=   None    Shift=    0.000
 RMSDP=2.17D-08 MaxDP=2.20D-06 DE= 7.03D-09 OVMax= 1.02D-05

 Cycle  23  Pass 1  IDiag  1:
 RMSU=  9.25D-09    CP:  1.00D+00  1.19D+00
 E= -270.110070401281     Delta-E=       -0.000000000015 Rises=F Damp=F
 DIIS: error= 4.95D-08 at cycle  23 NSaved=  20.
 NSaved=20 IEnMin=18 EnMin= -270.110070408296     IErMin=20 ErrMin= 4.95D-08
 ErrMax= 4.95D-08  0.00D+00 EMaxC= 1.00D-01 BMatC= 3.71D-12 BMatP= 1.24D-11
 IDIUse=1 WtCom= 1.00D+00 WtEn= 0.00D+00
 Coeff-Com:  0.217D-05-0.160D-04-0.314D-04 0.819D-04 0.634D-04-0.163D-03
 Coeff-Com: -0.168D-02 0.193D-02 0.192D-02-0.307D-02-0.686D-02 0.125D-01
 Coeff-Com:  0.127D-01-0.262D-01-0.803D-02 0.250D-01 0.392D-01-0.257D+00
 Coeff-Com:  0.203D+00 0.101D+01
 Coeff:      0.217D-05-0.160D-04-0.314D-04 0.819D-04 0.634D-04-0.163D-03
 Coeff:     -0.168D-02 0.193D-02 0.192D-02-0.307D-02-0.686D-02 0.125D-01
 Coeff:      0.127D-01-0.262D-01-0.803D-02 0.250D-01 0.392D-01-0.257D+00
 Coeff:      0.203D+00 0.101D+01
 Gap=     0.340 Goal=   None    Shift=    0.000
 Gap=     0.319 Goal=   None    Shift=    0.000
 RMSDP=6.27D-09 MaxDP=4.72D-07 DE=-1.51D-11 OVMax= 1.79D-06

 SCF Done:  E(UPBE+HF-P86) =  -270.110070401     A.U. after   23 cycles
            NFock= 23  Conv=0.63D-08     -V/T= 2.0039
 <Sx>= 0.0000 <Sy>= 0.0000 <Sz>= 0.5000 <S**2>= 0.7864 S= 0.5181
 <L.S>=  0.00000000000    
 KE= 2.690705661674D+02 PE=-1.100071588116D+03 EE= 3.262276687371D+02
 Annihilation of the first spin contaminant:
 S**2 before annihilation     0.7864,   after     0.7504
 Leave Link  502 at Fri Aug 29 15:35:06 2025, MaxMem=  4831838208 cpu:            2017.5 elap:             253.7
 (Enter /apps/eb/gaussian/16-AVX2/g16/l508.exe)
 QCSCF skips out because SCF is already converged.
 Leave Link  508 at Fri Aug 29 15:35:06 2025, MaxMem=  4831838208 cpu:               0.0 elap:               0.0
 (Enter /apps/eb/gaussian/16-AVX2/g16/l801.exe)
 DoSCS=T DFT=T ScalE2(SS,OS)=  0.079900  0.578500
 ExpMin= 3.57D-02 ExpMax= 1.53D+04 ExpMxC= 5.22D+02 IAcc=3 IRadAn=         5 AccDes= 0.00D+00
 HarFok:  IExCor=  205 AccDes= 0.00D+00 IRadAn=         5 IDoV=-2 UseB2=F ITyADJ=14
 ICtDFT= 12500011 ScaDFX=  1.000000  1.000000  1.000000  1.000000
 Largest valence mixing into a core orbital is  1.42D-04
 Largest core mixing into a valence orbital is  2.62D-05
 Largest valence mixing into a core orbital is  1.45D-04
 Largest core mixing into a valence orbital is  2.70D-05
 Range of M.O.s used for correlation:     7   360
 NBasis=   360 NAE=    24 NBE=    23 NFC=     6 NFV=     0
 NROrb=    354 NOA=    18 NOB=    17 NVA=   336 NVB=   337

 **** Warning!!: The largest alpha MO coefficient is  0.42221968D+02


 **** Warning!!: The largest beta MO coefficient is  0.39620881D+02

 Leave Link  801 at Fri Aug 29 15:35:06 2025, MaxMem=  4831838208 cpu:               0.9 elap:               0.1
 (Enter /apps/eb/gaussian/16-AVX2/g16/l906.exe)
 DoSCS=T DFT=T ScalE2(SS,OS)=  0.079900  0.578500
 Frozen-core derivative calculation, NFC=   6 NFV=   0.
 FulOut=F Deriv=T AODrv=T NAtomX=    15
   MMem=           0  MDisk=          18 MDiskD=          18
  W3Min=     6998400 MinDsk=    12771860 NBas6D=         405
 NBas2D=       83016    NTT=       82215    LW2=     7400000
    MDV=  4829802407 MDiskM=       59602 NBas2p=       82442
 Disk-based method using ON**2 memory for 18 occupieds at a time.
 Permanent disk used for amplitudes=    92361192 words.
 Estimated scratch disk usage=  2148437880 words.
 IMap=   1   2   3   4   5   6   7   8   9  10  11  12  13  14  15  16  17  18  19  20
 IMap=  21  22  23  24
 Actual    scratch disk usage=  2077364088 words.
 JobTyp=2 Pass  1:  I=   7 to  24 NPSUse=  8 ParTrn=T ParDer=T DoDerP=T.
 (rs|ai) integrals will be sorted in core.
 IMap=   1   2   3   4   5   6   7   8   9  10  11  12  13  14  15  16  17  18  19  20
 IMap=  21  22  23
 Actual    scratch disk usage=  2077364088 words.
 JobTyp=3 Pass  1:  I=   7 to  23 NPSUse=  8 ParTrn=T ParDer=T DoDerP=T.
 (rs|ai) integrals will be sorted in core.
 Spin components of T(2) and E(2):
     alpha-alpha T2 =       0.5470589790D-01 E2=     -0.1193435645D-01
     alpha-beta  T2 =       0.3161363383D+00 E2=     -0.5245647681D+00
     beta-beta   T2 =       0.5334066348D-01 E2=     -0.1072329919D-01
 The integrals were generated   2 times.
 (S**2,0)=  0.78643D+00           (S**2,1)=  0.76546D+00
 Scaling Projection term by:   0.578500
 E(PUHF)=      -0.27011563531D+03        E(PMP2)=      -0.27065959156D+03
 E2 =    -0.5472224237D+00 EUMP2 =    -0.27065729282502D+03
 Leave Link  906 at Fri Aug 29 17:47:25 2025, MaxMem=  4831838208 cpu:           63012.8 elap:            7938.5
 (Enter /apps/eb/gaussian/16-AVX2/g16/l1101.exe)
 Using compressed Sx but separate Hx and Fx, NAtomX=    15.
 Will process     16 centers per pass.
 R6Disp: Adding Grimme-D3(BJ) dispersion energy 1st derivatives to the gradient.
 Leave Link 1101 at Fri Aug 29 17:47:25 2025, MaxMem=  4831838208 cpu:               2.5 elap:               0.4
 (Enter /apps/eb/gaussian/16-AVX2/g16/l1102.exe)
 Leave Link 1102 at Fri Aug 29 17:47:25 2025, MaxMem=  4831838208 cpu:               0.1 elap:               0.0
 (Enter /apps/eb/gaussian/16-AVX2/g16/l1110.exe)
 Forming Gx(P) for the SCF density, NAtomX=    15.
 Integral derivatives from FoFJK, PRISM(SPDF).
 Do as many integral derivatives as possible in FoFJK.
 G2DrvN: MDV=    4831836527.
 G2DrvN: will do    16 centers at a time, making    1 passes.
 Calling FoFCou, ICntrl=  3107 FMM=F I1Cent=   0 AccDes= 0.00D+00.
 FoFJK:  IHMeth= 1 ICntrl=    3107 DoSepK=F KAlg= 0 I1Cent=           0 FoldK=F
 IRaf=         0 NMat=       1 IRICut=       1 DoRegI=T DoRafI=F ISym2E= 0 IDoP0=0 IntGTp=1.
 FoFCou: FMM=F IPFlag=           0 FMFlag=      100000 FMFlg1=           0
         NFxFlg=           0 DoJE=F BraDBF=F KetDBF=F FulRan=T
         wScrn=  0.000000 ICntrl=      3107 IOpCl=  1 I1Cent=           0 NGrid=           0
         NMat0=    1 NMatS0=      1 NMatT0=    0 NMatD0=    1 NMtDS0=    0 NMtDT0=    0
 Symmetry not used in FoFCou.
 End of G2Drv F.D. properties file   721 does not exist.
 End of G2Drv F.D. properties file   722 does not exist.
 End of G2Drv F.D. properties file   788 does not exist.
 Leave Link 1110 at Fri Aug 29 17:51:14 2025, MaxMem=  4831838208 cpu:            1817.7 elap:             228.7
 (Enter /apps/eb/gaussian/16-AVX2/g16/l1002.exe)
 Minotr:  UHF open shell wavefunction.
          IDoAtm=111111111111111
          Frozen-core window.
          Direct CPHF calculation.
          Differentiating once with respect to electric field.
                with respect to dipole field.
          Differentiating once with respect to nuclear coordinates.
          Requested convergence is 1.0D-08 RMS, and 1.0D-07 maximum.
          Secondary convergence is 1.0D-12 RMS, and 1.0D-12 maximum.
          NewPWx=T KeepS1=T KeepF1=T KeepIn=T MapXYZ=F SortEE=F KeepMc=T.
         4646 words used for storage of precomputed grid.
 Keep R1 and R2 ints in memory in canonical form, NReq=4255936613.
 FoFCou: FMM=F IPFlag=           0 FMFlag=           0 FMFlg1=           0
         NFxFlg=           0 DoJE=F BraDBF=F KetDBF=F FulRan=T
         wScrn=  0.000000 ICntrl=       600 IOpCl=  0 I1Cent=           0 NGrid=           0
         NMat0=    1 NMatS0=  64980 NMatT0=    0 NMatD0=    1 NMtDS0=    0 NMtDT0=    0
 Symmetry not used in FoFCou.
 Two-electron integral symmetry not used.
          MDV=    4831838208 using IRadAn=       1.
          Solving linear equations simultaneously, MaxMat=       0.
          There are    48 degrees of freedom in the 1st order CPHF.  IDoFFX=6 NUNeed=    48.
     45 vectors produced by pass  0 Test12= 3.29D-14 2.08D-09 XBig12= 5.99D+01 3.54D+00.
 AX will form    45 AO Fock derivatives at one time.
     45 vectors produced by pass  1 Test12= 3.29D-14 2.08D-09 XBig12= 3.27D+00 3.27D-01.
     45 vectors produced by pass  2 Test12= 3.29D-14 2.08D-09 XBig12= 1.23D-01 4.71D-02.
     45 vectors produced by pass  3 Test12= 3.29D-14 2.08D-09 XBig12= 2.47D-03 5.62D-03.
     45 vectors produced by pass  4 Test12= 3.29D-14 2.08D-09 XBig12= 2.94D-05 4.47D-04.
     45 vectors produced by pass  5 Test12= 3.29D-14 2.08D-09 XBig12= 3.47D-07 5.32D-05.
     45 vectors produced by pass  6 Test12= 3.29D-14 2.08D-09 XBig12= 3.36D-09 4.91D-06.
     23 vectors produced by pass  7 Test12= 3.29D-14 2.08D-09 XBig12= 2.93D-11 4.05D-07.
      3 vectors produced by pass  8 Test12= 3.29D-14 2.08D-09 XBig12= 2.84D-13 3.52D-08.
      3 vectors produced by pass  9 Test12= 3.29D-14 2.08D-09 XBig12= 3.27D-15 5.60D-09.
 InvSVY:  IOpt=1 It=  1 EMax= 5.33D-15
 Solved reduced A of dimension   344 with    48 vectors.
 FullF1:  Do perturbations      1 to      48.
 Saving first derivative matrices.
 End of Minotr F.D. properties file   721 does not exist.
 End of Minotr F.D. properties file   722 does not exist.
 End of Minotr F.D. properties file   788 does not exist.
 Leave Link 1002 at Fri Aug 29 17:57:52 2025, MaxMem=  4831838208 cpu:            3154.0 elap:             397.5
 (Enter /apps/eb/gaussian/16-AVX2/g16/l811.exe)
 MDV=  4831838208.
 DoSCS=T DFT=T ScalE2(SS,OS)=  0.079900  0.578500
 Form MO integral derivatives with frozen-active canonical formalism.
 MOERI=1 MOERIx=1 NAtoms=    15 NAtomX=    15.
 Discarding MO integrals.
 MO basis two electron integral derivatives will not be stored on disk.
 IAlg= 3 DoFC=T DoPWx=T Debug=F.
 Frozen-core window:  NFC=   6 NFV=   0.
 Reordered first order wavefunction length =    372275653
 In DefCFB: NBatch=  1 ICI= 24 ICA=337 LFMax= 57
            Large arrays: LIAPS=  9223308000 LIARS=  2063653200 words.
 In StABat: MaxSiz= 45 MinSiz= 45 NAtomB=  9
 DoIAMN: NPSUse=  8.
 In DefCFB: NBatch=  1 ICI= 24 ICA=337 LFMax= 57
            Large arrays: LIAPS=  9223308000 LIARS=  2063653200 words.
 In StABat: MaxSiz= 45 MinSiz= 45 NAtomB=  9
 Leave Link  811 at Fri Aug 29 20:04:42 2025, MaxMem=  4831838208 cpu:           59919.5 elap:            7610.5
 (Enter /apps/eb/gaussian/16-AVX2/g16/l804.exe)
 Frozen-core window:  NFC=   6 NFV=   0.
 Open-shell transformation, MDV=  4831838208 ITran=4 ISComp=1.
 Semi-Direct transformation.
 ModeAB=           4 MOrb=            24 LenV=    4828007605
 LASXX=    536667186 LTotXX=   536667186 LenRXX=  1080159906
 LTotAB=   543492720 MaxLAS=   700920000 LenRXY=           0
 NonZer=  1616827092 LenScr=  2434751488 LnRSAI=   700920000
 LnScr1=  1055503360 LExtra=           0 Total=   5271334754
 MaxDsk=          -1 SrtSym=           T ITran=            4
 DoSDTr:  NPSUse=  8
 JobTyp=1 Pass  1:  I=   1 to  24.
 (rs|ai) integrals will be sorted in core.
 Complete sort for first half transformation.
 First half transformation complete.
 Begin second half transformation for I=  10.
 Begin second half transformation for I=  20.
 Complete sort for second half transformation.
 Second half transformation complete.
 ModeAB=           4 MOrb=            23 LenV=    4828007605
 LASXX=    515225599 LTotXX=   515225599 LenRXX=   969682231
 LTotAB=   454456632 MaxLAS=   671715000 LenRXY=           0
 NonZer=  1484907830 LenScr=  2236096512 LnRSAI=   671715000
 LnScr1=  1011524608 LExtra=           0 Total=   4889018351
 MaxDsk=          -1 SrtSym=           T ITran=            4
 DoSDTr:  NPSUse=  8
 JobTyp=2 Pass  1:  I=   1 to  23.
 (rs|ai) integrals will be sorted in core.
 Complete sort for first half transformation.
 First half transformation complete.
 Begin second half transformation for I=  10.
 Begin second half transformation for I=  20.
 Complete sort for second half transformation.
 Second half transformation complete.
 SymMOI:  orbitals are not symmetric.
 DoSCS=T DFT=T ScalE2(SS,OS)=  0.079900  0.578500
 Spin components of T(2) and E(2):
     alpha-alpha T2 =       0.5470589790D-01 E2=     -0.1193435645D-01
     alpha-beta  T2 =       0.3161363383D+00 E2=     -0.5245647681D+00
     beta-beta   T2 =       0.5334066348D-01 E2=     -0.1072329919D-01
 E2 =    -0.5472224237D+00 EUMP2 =    -0.27065729282502D+03
 (S**2,0)=  0.78643D+00           (S**2,1)=  0.76546D+00
 Scaling Projection term by:   0.578500
 E(PUHF)=      -0.27011563531D+03        E(PMP2)=      -0.27065959156D+03
 Leave Link  804 at Fri Aug 29 20:13:01 2025, MaxMem=  4831838208 cpu:            3953.3 elap:             498.6
 (Enter /apps/eb/gaussian/16-AVX2/g16/l1002.exe)
 Minotr:  UHF open shell wavefunction.
          Computing MP2/KS-MP2 derivatives.
          Using Z-Vector for PSCF gradient.
          Skipping F1 and S1 gradient terms here.
          IDoAtm=111111111111111
          Frozen-core window.
          Direct CPHF calculation.
          Differentiating once with respect to electric field.
                with respect to dipole field.
          Differentiating once with respect to nuclear coordinates.
          Requested convergence is 1.0D-10 RMS, and 1.0D-09 maximum.
          NewPWx=T KeepS1=F KeepF1=F KeepIn=T MapXYZ=F SortEE=F KeepMc=T.
 Keep R1 and R2 ints in memory in canonical form, NReq=4255931967.
 FoFCou: FMM=F IPFlag=           0 FMFlag=           0 FMFlg1=           0
         NFxFlg=           0 DoJE=F BraDBF=F KetDBF=F FulRan=T
         wScrn=  0.000000 ICntrl=       600 IOpCl=  0 I1Cent=           0 NGrid=           0
         NMat0=    1 NMatS0=  64980 NMatT0=    0 NMatD0=    1 NMtDS0=    0 NMtDT0=    0
 Symmetry not used in FoFCou.
 Two-electron integral symmetry not used.
          MDV=    4831838208 using IRadAn=       5.
          Solving linear equations separately, MaxMat=       0.
          There are     1 degrees of freedom in the 1st order CPHF.  IDoFFX=0 NUNeed=     1.
 LinEq1:  Iter=  0 NonCon=     1 RMS=8.52D-04 Max=4.99D-02 NDo=     1
 AX will form     1 AO Fock derivatives at one time.
 LinEq1:  Iter=  1 NonCon=     1 RMS=2.82D-04 Max=1.05D-02 NDo=     1
 LinEq1:  Iter=  2 NonCon=     1 RMS=1.92D-04 Max=6.05D-03 NDo=     1
 LinEq1:  Iter=  3 NonCon=     1 RMS=7.50D-05 Max=4.97D-03 NDo=     1
 LinEq1:  Iter=  4 NonCon=     1 RMS=2.97D-05 Max=1.54D-03 NDo=     1
 LinEq1:  Iter=  5 NonCon=     1 RMS=1.16D-05 Max=2.53D-04 NDo=     1
 LinEq1:  Iter=  6 NonCon=     1 RMS=5.06D-06 Max=1.30D-04 NDo=     1
 LinEq1:  Iter=  7 NonCon=     1 RMS=1.69D-06 Max=1.05D-04 NDo=     1
 LinEq1:  Iter=  8 NonCon=     1 RMS=1.12D-06 Max=6.32D-05 NDo=     1
 LinEq1:  Iter=  9 NonCon=     1 RMS=5.93D-07 Max=2.84D-05 NDo=     1
 LinEq1:  Iter= 10 NonCon=     1 RMS=2.21D-07 Max=8.29D-06 NDo=     1
 LinEq1:  Iter= 11 NonCon=     1 RMS=1.07D-07 Max=5.86D-06 NDo=     1
 LinEq1:  Iter= 12 NonCon=     1 RMS=3.92D-08 Max=2.04D-06 NDo=     1
 LinEq1:  Iter= 13 NonCon=     1 RMS=1.63D-08 Max=6.30D-07 NDo=     1
 LinEq1:  Iter= 14 NonCon=     1 RMS=6.02D-09 Max=1.66D-07 NDo=     1
 LinEq1:  Iter= 15 NonCon=     1 RMS=1.85D-09 Max=2.52D-08 NDo=     1
 LinEq1:  Iter= 16 NonCon=     1 RMS=5.37D-10 Max=1.34D-08 NDo=     1
 LinEq1:  Iter= 17 NonCon=     1 RMS=2.29D-10 Max=4.58D-09 NDo=     1
 LinEq1:  Iter= 18 NonCon=     0 RMS=7.74D-11 Max=9.77D-10 NDo=     1
 Linear equations converged to 1.000D-10 1.000D-09 after    18 iterations.
 End of Minotr F.D. properties file   721 does not exist.
 End of Minotr F.D. properties file   722 does not exist.
 End of Minotr F.D. properties file   788 does not exist.
 Leave Link 1002 at Fri Aug 29 20:16:26 2025, MaxMem=  4831838208 cpu:            1165.9 elap:             204.9
 (Enter /apps/eb/gaussian/16-AVX2/g16/l1102.exe)
 Use density number 2.
 Symmetrizing basis deriv contribution to polar:
 IMax=3 JMax=2 DiffMx= 0.00D+00
 Leave Link 1102 at Fri Aug 29 20:16:26 2025, MaxMem=  4831838208 cpu:               0.2 elap:               0.1
 (Enter /apps/eb/gaussian/16-AVX2/g16/l1110.exe)
 Forming Gx(P) for generalized density number  2 NAtomX=    15.
 Integral derivatives from FoFJK, PRISM(SPDF).
 Do as many integral derivatives as possible in FoFJK.
 G2DrvN: MDV=    4831836527.
 G2DrvN: will do    16 centers at a time, making    1 passes.
 Calling FoFCou, ICntrl=  3107 FMM=F I1Cent=   0 AccDes= 0.00D+00.
 FoFJK:  IHMeth= 1 ICntrl=    3107 DoSepK=F KAlg= 0 I1Cent=           0 FoldK=F
 IRaf=         0 NMat=       1 IRICut=       1 DoRegI=T DoRafI=F ISym2E= 0 IDoP0=0 IntGTp=1.
 FoFCou: FMM=F IPFlag=           0 FMFlag=      100000 FMFlg1=           0
         NFxFlg=           0 DoJE=F BraDBF=F KetDBF=F FulRan=T
         wScrn=  0.000000 ICntrl=      3107 IOpCl=  1 I1Cent=           0 NGrid=           0
         NMat0=    1 NMatS0=      1 NMatT0=    0 NMatD0=    1 NMtDS0=    0 NMtDT0=    0
 Symmetry not used in FoFCou.
 End of G2Drv F.D. properties file   721 does not exist.
 End of G2Drv F.D. properties file   722 does not exist.
 End of G2Drv F.D. properties file   788 does not exist.
 Leave Link 1110 at Fri Aug 29 20:20:21 2025, MaxMem=  4831838208 cpu:            1863.7 elap:             234.6
 (Enter /apps/eb/gaussian/16-AVX2/g16/l1112.exe)
 MP22nd: MDV=    4831838208
 DoSCS=T DFT=T ScalE2(SS,OS)=  0.079900  0.578500
 This link is doing NAtomX=    15 total of    48 degrees of freedom.
 Using ON3 I/O method in MakUI.
 Frozen-core window:  NFC=   6 NFV=   0.
 Using Ix for Sx.
 Use MO integrals over full window.
 Using OV2 memory method for fx*t*t/D, MaxI=    23 DoOO2=F NP=   8.
 Would need an additional  1961013869 words for in-memory AO integral storage.
 DD1Dir will call FoFJK   2 times, MxPair=       818
 NAB=   552 NAA=   276 NBB=   253 NumPrc=  8.
 DD1Dir:  Pass   1 NRAB=   409 NRAA=     0 NRBB=     0 NR=   818.
 FoFJK:  IHMeth= 1 ICntrl=     200 DoSepK=F KAlg= 0 I1Cent=           0 FoldK=F
 IRaf= 990000000 NMat=     818 IRICut=    1022 DoRegI=T DoRafI=T ISym2E= 2 IDoP0=3 IntGTp=3.
 FoFCou: FMM=F IPFlag=           0 FMFlag=           0 FMFlg1=           0
         NFxFlg=           0 DoJE=F BraDBF=F KetDBF=F FulRan=T
         wScrn=  0.000000 ICntrl=       200 IOpCl=  0 I1Cent=           0 NGrid=           0
         NMat0=  818 NMatS0=      0 NMatT0=  409 NMatD0=  818 NMtDS0=    0 NMtDT0=    0
 Integrals replicated using symmetry in FoFCou.
 Raff kept on since  98.74% of shell-pairs survive, threshold=   0.20 IRatSp=99.
 DD1Dir:  Pass   2 NRAB=   143 NRAA=   276 NRBB=   253 NR=   815.
 Symmetry is being used.
 R6Disp: Adding Grimme-D3(BJ) dispersion energy 1st derivatives to the gradient.
 Discarding MO integrals.
 Leave Link 1112 at Fri Aug 29 21:18:08 2025, MaxMem=  4831838208 cpu:           27294.0 elap:            3467.1
 (Enter /apps/eb/gaussian/16-AVX2/g16/l601.exe)
 Copying SCF densities to generalized density rwf, IOpCl= 1 IROHF=0.

 **********************************************************************

            Population analysis using the SCF Density.

 **********************************************************************

 Orbital symmetries:
 Alpha Orbitals:
       Occupied  (A) (A) (A) (A) (A) (A) (A) (A) (A) (A) (A) (A)
                 (A) (A) (A) (A) (A) (A) (A) (A) (A) (A) (A) (A)
       Virtual   (A) (A) (A) (A) (A) (A) (A) (A) (A) (A) (A) (A)
                 (A) (A) (A) (A) (A) (A) (A) (A) (A) (A) (A) (A)
                 (A) (A) (A) (A) (A) (A) (A) (A) (A) (A) (A) (A)
                 (A) (A) (A) (A) (A) (A) (A) (A) (A) (A) (A) (A)
                 (A) (A) (A) (A) (A) (A) (A) (A) (A) (A) (A) (A)
                 (A) (A) (A) (A) (A) (A) (A) (A) (A) (A) (A) (A)
                 (A) (A) (A) (A) (A) (A) (A) (A) (A) (A) (A) (A)
                 (A) (A) (A) (A) (A) (A) (A) (A) (A) (A) (A) (A)
                 (A) (A) (A) (A) (A) (A) (A) (A) (A) (A) (A) (A)
                 (A) (A) (A) (A) (A) (A) (A) (A) (A) (A) (A) (A)
                 (A) (A) (A) (A) (A) (A) (A) (A) (A) (A) (A) (A)
                 (A) (A) (A) (A) (A) (A) (A) (A) (A) (A) (A) (A)
                 (A) (A) (A) (A) (A) (A) (A) (A) (A) (A) (A) (A)
                 (A) (A) (A) (A) (A) (A) (A) (A) (A) (A) (A) (A)
                 (A) (A) (A) (A) (A) (A) (A) (A) (A) (A) (A) (A)
                 (A) (A) (A) (A) (A) (A) (A) (A) (A) (A) (A) (A)
                 (A) (A) (A) (A) (A) (A) (A) (A) (A) (A) (A) (A)
                 (A) (A) (A) (A) (A) (A) (A) (A) (A) (A) (A) (A)
                 (A) (A) (A) (A) (A) (A) (A) (A) (A) (A) (A) (A)
                 (A) (A) (A) (A) (A) (A) (A) (A) (A) (A) (A) (A)
                 (A) (A) (A) (A) (A) (A) (A) (A) (A) (A) (A) (A)
                 (A) (A) (A) (A) (A) (A) (A) (A) (A) (A) (A) (A)
                 (A) (A) (A) (A) (A) (A) (A) (A) (A) (A) (A) (A)
                 (A) (A) (A) (A) (A) (A) (A) (A) (A) (A) (A) (A)
                 (A) (A) (A) (A) (A) (A) (A) (A) (A) (A) (A) (A)
                 (A) (A) (A) (A) (A) (A) (A) (A) (A) (A) (A) (A)
                 (A) (A) (A) (A) (A) (A) (A) (A) (A) (A) (A) (A)
                 (A) (A) (A) (A) (A) (A) (A) (A) (A) (A) (A) (A)
 Beta  Orbitals:
       Occupied  (A) (A) (A) (A) (A) (A) (A) (A) (A) (A) (A) (A)
                 (A) (A) (A) (A) (A) (A) (A) (A) (A) (A) (A)
       Virtual   (A) (A) (A) (A) (A) (A) (A) (A) (A) (A) (A) (A)
                 (A) (A) (A) (A) (A) (A) (A) (A) (A) (A) (A) (A)
                 (A) (A) (A) (A) (A) (A) (A) (A) (A) (A) (A) (A)
                 (A) (A) (A) (A) (A) (A) (A) (A) (A) (A) (A) (A)
                 (A) (A) (A) (A) (A) (A) (A) (A) (A) (A) (A) (A)
                 (A) (A) (A) (A) (A) (A) (A) (A) (A) (A) (A) (A)
                 (A) (A) (A) (A) (A) (A) (A) (A) (A) (A) (A) (A)
                 (A) (A) (A) (A) (A) (A) (A) (A) (A) (A) (A) (A)
                 (A) (A) (A) (A) (A) (A) (A) (A) (A) (A) (A) (A)
                 (A) (A) (A) (A) (A) (A) (A) (A) (A) (A) (A) (A)
                 (A) (A) (A) (A) (A) (A) (A) (A) (A) (A) (A) (A)
                 (A) (A) (A) (A) (A) (A) (A) (A) (A) (A) (A) (A)
                 (A) (A) (A) (A) (A) (A) (A) (A) (A) (A) (A) (A)
                 (A) (A) (A) (A) (A) (A) (A) (A) (A) (A) (A) (A)
                 (A) (A) (A) (A) (A) (A) (A) (A) (A) (A) (A) (A)
                 (A) (A) (A) (A) (A) (A) (A) (A) (A) (A) (A) (A)
                 (A) (A) (A) (A) (A) (A) (A) (A) (A) (A) (A) (A)
                 (A) (A) (A) (A) (A) (A) (A) (A) (A) (A) (A) (A)
                 (A) (A) (A) (A) (A) (A) (A) (A) (A) (A) (A) (A)
                 (A) (A) (A) (A) (A) (A) (A) (A) (A) (A) (A) (A)
                 (A) (A) (A) (A) (A) (A) (A) (A) (A) (A) (A) (A)
                 (A) (A) (A) (A) (A) (A) (A) (A) (A) (A) (A) (A)
                 (A) (A) (A) (A) (A) (A) (A) (A) (A) (A) (A) (A)
                 (A) (A) (A) (A) (A) (A) (A) (A) (A) (A) (A) (A)
                 (A) (A) (A) (A) (A) (A) (A) (A) (A) (A) (A) (A)
                 (A) (A) (A) (A) (A) (A) (A) (A) (A) (A) (A) (A)
                 (A) (A) (A) (A) (A) (A) (A) (A) (A) (A) (A) (A)
                 (A) (A) (A) (A) (A) (A) (A) (A) (A) (A) (A) (A)
                 (A)
 The electronic state is 2-A.
 Alpha  occ. eigenvalues --  -20.05118 -10.82310 -10.82014 -10.81936 -10.81407
 Alpha  occ. eigenvalues --  -10.81237  -1.22118  -1.02867  -0.87315  -0.86694
 Alpha  occ. eigenvalues --   -0.70936  -0.65789  -0.61362  -0.58133  -0.57931
 Alpha  occ. eigenvalues --   -0.53660  -0.49649  -0.47819  -0.45692  -0.44299
 Alpha  occ. eigenvalues --   -0.43788  -0.42939  -0.42680  -0.30507
 Alpha virt. eigenvalues --    0.03486   0.04366   0.04642   0.05059   0.06351
 Alpha virt. eigenvalues --    0.06711   0.08023   0.08745   0.08802   0.09322
 Alpha virt. eigenvalues --    0.11619   0.11717   0.12297   0.13287   0.13625
 Alpha virt. eigenvalues --    0.14401   0.16480   0.17250   0.17637   0.18038
 Alpha virt. eigenvalues --    0.18412   0.18898   0.19357   0.20574   0.21956
 Alpha virt. eigenvalues --    0.23291   0.23596   0.25549   0.26692   0.27676
 Alpha virt. eigenvalues --    0.27768   0.29424   0.29952   0.30678   0.31941
 Alpha virt. eigenvalues --    0.31977   0.32322   0.32678   0.33217   0.35051
 Alpha virt. eigenvalues --    0.36621   0.37539   0.38429   0.38926   0.39632
 Alpha virt. eigenvalues --    0.40085   0.41442   0.43106   0.43764   0.44254
 Alpha virt. eigenvalues --    0.44652   0.46063   0.46665   0.47762   0.49281
 Alpha virt. eigenvalues --    0.50093   0.50895   0.53044   0.53533   0.54533
 Alpha virt. eigenvalues --    0.56197   0.57141   0.59734   0.60502   0.60834
 Alpha virt. eigenvalues --    0.61550   0.62933   0.63733   0.64996   0.67047
 Alpha virt. eigenvalues --    0.68923   0.69768   0.72057   0.72808   0.73999
 Alpha virt. eigenvalues --    0.74967   0.75769   0.76235   0.76672   0.77344
 Alpha virt. eigenvalues --    0.77900   0.78988   0.79836   0.80241   0.82132
 Alpha virt. eigenvalues --    0.83053   0.84064   0.85577   0.86486   0.87053
 Alpha virt. eigenvalues --    0.88422   0.91011   0.92471   0.95460   0.96346
 Alpha virt. eigenvalues --    0.97545   1.00409   1.00757   1.03937   1.05948
 Alpha virt. eigenvalues --    1.08974   1.10593   1.13371   1.14180   1.15595
 Alpha virt. eigenvalues --    1.16380   1.20194   1.23293   1.24944   1.25112
 Alpha virt. eigenvalues --    1.26846   1.29389   1.30779   1.34113   1.35680
 Alpha virt. eigenvalues --    1.36857   1.37793   1.39145   1.39852   1.41163
 Alpha virt. eigenvalues --    1.43486   1.43943   1.45499   1.46470   1.47615
 Alpha virt. eigenvalues --    1.48083   1.48544   1.51012   1.52022   1.53676
 Alpha virt. eigenvalues --    1.54869   1.56710   1.58330   1.60489   1.61836
 Alpha virt. eigenvalues --    1.62703   1.65129   1.66168   1.68756   1.69483
 Alpha virt. eigenvalues --    1.71833   1.73259   1.74111   1.76585   1.80244
 Alpha virt. eigenvalues --    1.81397   1.85235   1.89001   1.93797   1.95637
 Alpha virt. eigenvalues --    1.96747   2.05299   2.07356   2.14192   2.16718
 Alpha virt. eigenvalues --    2.18834   2.19896   2.23569   2.34150   2.52492
 Alpha virt. eigenvalues --    2.59266   2.65341   2.70645   2.71288   2.72033
 Alpha virt. eigenvalues --    2.73704   2.74153   2.77917   2.80793   2.82206
 Alpha virt. eigenvalues --    2.83187   2.86695   2.87436   2.89078   2.90636
 Alpha virt. eigenvalues --    2.92360   2.93478   2.94999   2.96747   2.98833
 Alpha virt. eigenvalues --    3.00234   3.02166   3.03393   3.06306   3.08171
 Alpha virt. eigenvalues --    3.09785   3.12607   3.17217   3.20361   3.22814
 Alpha virt. eigenvalues --    3.23890   3.24602   3.26543   3.27772   3.28941
 Alpha virt. eigenvalues --    3.31270   3.32111   3.32956   3.35343   3.37301
 Alpha virt. eigenvalues --    3.37957   3.39042   3.39771   3.40078   3.41296
 Alpha virt. eigenvalues --    3.43118   3.43554   3.44503   3.48164   3.50459
 Alpha virt. eigenvalues --    3.51255   3.53525   3.55414   3.56124   3.57934
 Alpha virt. eigenvalues --    3.60116   3.62501   3.62987   3.63790   3.68627
 Alpha virt. eigenvalues --    3.70412   3.72970   3.73837   3.76685   3.79309
 Alpha virt. eigenvalues --    3.80150   3.82629   3.86303   3.86913   3.88593
 Alpha virt. eigenvalues --    3.90924   3.92392   3.93618   3.96445   4.00177
 Alpha virt. eigenvalues --    4.00816   4.02935   4.06925   4.08462   4.10349
 Alpha virt. eigenvalues --    4.12173   4.14886   4.15858   4.17087   4.17681
 Alpha virt. eigenvalues --    4.18747   4.19282   4.21514   4.23183   4.25405
 Alpha virt. eigenvalues --    4.26508   4.28149   4.30228   4.31601   4.33091
 Alpha virt. eigenvalues --    4.34671   4.38037   4.38087   4.41063   4.41894
 Alpha virt. eigenvalues --    4.44016   4.45758   4.48000   4.50024   4.51317
 Alpha virt. eigenvalues --    4.52976   4.56299   4.56856   4.58594   4.59243
 Alpha virt. eigenvalues --    4.61787   4.65780   4.66632   4.67498   4.69947
 Alpha virt. eigenvalues --    4.74479   4.76608   4.78591   4.81123   4.82202
 Alpha virt. eigenvalues --    4.90787   4.92552   4.94732   4.96127   5.02936
 Alpha virt. eigenvalues --    5.04115   5.06140   5.08422   5.12157   5.13136
 Alpha virt. eigenvalues --    5.15989   5.20473   5.22255   5.26115   5.28828
 Alpha virt. eigenvalues --    5.33276   5.35445   5.36466   5.39231   5.42899
 Alpha virt. eigenvalues --    5.43948   5.44863   5.48091   5.48669   5.49983
 Alpha virt. eigenvalues --    5.55373   5.57486   5.64877   5.66326   5.67347
 Alpha virt. eigenvalues --    5.69861   5.72784   5.74231   5.83567   5.89990
 Alpha virt. eigenvalues --    5.96952   6.06592   6.21965   6.35908   6.37106
 Alpha virt. eigenvalues --    6.44284   6.50437   6.77297   6.79968   6.91093
 Alpha virt. eigenvalues --    6.92948   6.98288   7.03275   7.23693   7.58700
 Alpha virt. eigenvalues --   11.16926  12.10873  13.04398  13.55743  13.67208
 Alpha virt. eigenvalues --   14.72303
  Beta  occ. eigenvalues --  -20.01835 -10.82546 -10.82001 -10.81475 -10.81405
  Beta  occ. eigenvalues --  -10.81213  -1.10849  -1.02449  -0.87086  -0.86464
  Beta  occ. eigenvalues --   -0.70860  -0.65471  -0.61160  -0.57462  -0.54747
  Beta  occ. eigenvalues --   -0.49490  -0.47649  -0.44575  -0.44166  -0.43272
  Beta  occ. eigenvalues --   -0.42954  -0.41069  -0.31165
  Beta virt. eigenvalues --    0.00737   0.03562   0.04401   0.04668   0.05372
  Beta virt. eigenvalues --    0.06365   0.06805   0.08123   0.08990   0.09202
  Beta virt. eigenvalues --    0.09636   0.11619   0.11722   0.12364   0.13362
  Beta virt. eigenvalues --    0.13959   0.14587   0.17207   0.17406   0.17662
  Beta virt. eigenvalues --    0.18179   0.18530   0.19028   0.19623   0.20789
  Beta virt. eigenvalues --    0.22112   0.23371   0.23788   0.25743   0.26735
  Beta virt. eigenvalues --    0.27748   0.28364   0.29499   0.30017   0.30729
  Beta virt. eigenvalues --    0.31954   0.31995   0.32424   0.32699   0.33317
  Beta virt. eigenvalues --    0.35097   0.36788   0.37706   0.38732   0.39062
  Beta virt. eigenvalues --    0.39868   0.40350   0.41461   0.43248   0.43933
  Beta virt. eigenvalues --    0.44535   0.44798   0.46111   0.46847   0.48137
  Beta virt. eigenvalues --    0.49376   0.50141   0.51234   0.53195   0.53462
  Beta virt. eigenvalues --    0.54760   0.56298   0.57214   0.59915   0.60615
  Beta virt. eigenvalues --    0.61186   0.62083   0.63158   0.64048   0.65198
  Beta virt. eigenvalues --    0.67114   0.69034   0.70057   0.72533   0.73737
  Beta virt. eigenvalues --    0.74148   0.75377   0.76292   0.76459   0.76866
  Beta virt. eigenvalues --    0.77535   0.78898   0.79132   0.80126   0.80553
  Beta virt. eigenvalues --    0.82981   0.83180   0.84566   0.85974   0.86951
  Beta virt. eigenvalues --    0.87761   0.88913   0.91352   0.92606   0.95692
  Beta virt. eigenvalues --    0.96438   0.98533   1.01029   1.01093   1.04175
  Beta virt. eigenvalues --    1.06318   1.09016   1.10918   1.14133   1.14435
  Beta virt. eigenvalues --    1.15788   1.16692   1.20305   1.23422   1.24949
  Beta virt. eigenvalues --    1.25292   1.27113   1.30216   1.31077   1.34401
  Beta virt. eigenvalues --    1.35851   1.37467   1.37920   1.39351   1.39981
  Beta virt. eigenvalues --    1.41221   1.43855   1.44163   1.46011   1.46581
  Beta virt. eigenvalues --    1.47766   1.48591   1.48978   1.51186   1.52128
  Beta virt. eigenvalues --    1.53744   1.54992   1.56877   1.59031   1.60882
  Beta virt. eigenvalues --    1.62004   1.63117   1.65268   1.66185   1.68836
  Beta virt. eigenvalues --    1.69580   1.71947   1.73314   1.74159   1.76738
  Beta virt. eigenvalues --    1.80338   1.81455   1.85449   1.89139   1.93856
  Beta virt. eigenvalues --    1.95978   1.98182   2.06210   2.07873   2.15431
  Beta virt. eigenvalues --    2.18469   2.23366   2.24731   2.27462   2.36181
  Beta virt. eigenvalues --    2.52717   2.59582   2.65785   2.71013   2.71141
  Beta virt. eigenvalues --    2.72217   2.73940   2.74332   2.77884   2.81094
  Beta virt. eigenvalues --    2.82268   2.83255   2.86708   2.87576   2.89157
  Beta virt. eigenvalues --    2.90756   2.92568   2.93609   2.95180   2.96912
  Beta virt. eigenvalues --    2.98974   3.00415   3.02220   3.03490   3.06414
  Beta virt. eigenvalues --    3.08336   3.09833   3.12827   3.17380   3.20392
  Beta virt. eigenvalues --    3.22871   3.24182   3.24623   3.26652   3.27786
  Beta virt. eigenvalues --    3.29051   3.31328   3.32083   3.33152   3.35454
  Beta virt. eigenvalues --    3.37548   3.37944   3.39098   3.39874   3.40197
  Beta virt. eigenvalues --    3.41308   3.43269   3.43665   3.44628   3.48343
  Beta virt. eigenvalues --    3.50549   3.51472   3.53542   3.55722   3.56190
  Beta virt. eigenvalues --    3.58106   3.60170   3.62646   3.63005   3.63939
  Beta virt. eigenvalues --    3.68702   3.70590   3.73081   3.74029   3.76844
  Beta virt. eigenvalues --    3.79501   3.80328   3.82721   3.86396   3.86989
  Beta virt. eigenvalues --    3.88786   3.91500   3.92519   3.93865   3.96496
  Beta virt. eigenvalues --    4.00225   4.00987   4.04188   4.07184   4.09295
  Beta virt. eigenvalues --    4.10521   4.12179   4.15165   4.16005   4.17089
  Beta virt. eigenvalues --    4.18105   4.18930   4.19375   4.21598   4.23272
  Beta virt. eigenvalues --    4.25484   4.26704   4.28309   4.30343   4.31743
  Beta virt. eigenvalues --    4.33202   4.34986   4.38074   4.38634   4.41435
  Beta virt. eigenvalues --    4.42242   4.44299   4.46299   4.48584   4.50840
  Beta virt. eigenvalues --    4.51817   4.53468   4.56409   4.57640   4.58841
  Beta virt. eigenvalues --    4.59766   4.63821   4.65848   4.67043   4.68796
  Beta virt. eigenvalues --    4.70621   4.74814   4.77421   4.78807   4.81778
  Beta virt. eigenvalues --    4.82557   4.90971   4.92629   4.94896   4.96165
[...]
 !       D13       285.0022   -DE/DX =   -0.0002                        !
 !       D14       271.3349   -DE/DX =    0.0                           !
 ------------------------------------------------------------------------
 GradGradGradGradGradGradGradGradGradGradGradGradGradGradGradGradGradGrad

 Leave Link  103 at Sat Aug 30 05:55:55 2025, MaxMem=  4831838208 cpu:               0.3 elap:               0.1
 (Enter /apps/eb/gaussian/16-AVX2/g16/l9999.exe)

 ----------------------------------------------------------------------

 Electric dipole moment (input orientation):
 (Debye = 10**-18 statcoulomb cm , SI units = C m)
                  (au)            (Debye)         (10**-30 SI)
   Tot        0.773098D+00      0.196502D+01      0.655459D+01
   x         -0.741137D+00     -0.188378D+01     -0.628362D+01
   y         -0.219973D+00     -0.559115D+00     -0.186501D+01
   z         -0.285076D-02     -0.724591D-02     -0.241697D-01

 Dipole polarizability, Alpha (input orientation).
 (esu units = cm**3 , SI units = C**2 m**2 J**-1)
 Alpha(0;0):
               (au)            (10**-24 esu)      (10**-40 SI)
   iso        0.696411D+02      0.103197D+02      0.114823D+02
   aniso      0.138716D+02      0.205556D+01      0.228711D+01
   xx         0.679327D+02      0.100666D+02      0.112006D+02
   yx         0.781725D+01      0.115840D+01      0.128889D+01
   yy         0.695781D+02      0.103104D+02      0.114719D+02
   zx         0.949437D-02      0.140692D-02      0.156541D-02
   zy         0.218978D-01      0.324492D-02      0.361046D-02
   zz         0.714125D+02      0.105822D+02      0.117743D+02

 ----------------------------------------------------------------------

 Dipole orientation:
     6         -0.00000000         -0.00000000         -0.00000000
     6          2.42907685          0.72096080         -0.00934337
     1         -0.98914048         -0.79187572         -1.60515257
     6          3.21017901          1.83734619          2.49591068
     1          3.67887298          0.59304213         -1.62289447
     6          1.02342328          1.05999694          4.26874508
     1          5.03991650          1.13769677          3.14760732
     1          3.39237613          3.89720670          2.34238925
     6         -1.24585158          0.51449723          2.51318909
     1          1.54351319         -0.67912975          5.25113109
     1          0.60660573          2.48270303          5.70091414
     1         -2.39265505         -1.06893367          3.17634124
     1         -2.52371192          2.14089185          2.36568957
     8          0.04576637          4.28564293         -2.76600365
     1         -0.17171664          5.00672005         -1.09481467

 Electric dipole moment (dipole orientation):
 (Debye = 10**-18 statcoulomb cm , SI units = C m)
                  (au)            (Debye)         (10**-30 SI)
   Tot        0.773098D+00      0.196502D+01      0.655459D+01
   x          0.000000D+00      0.000000D+00      0.000000D+00
   y          0.000000D+00      0.000000D+00      0.000000D+00
   z          0.773098D+00      0.196502D+01      0.655459D+01

 Dipole polarizability, Alpha (dipole orientation).
 (esu units = cm**3 , SI units = C**2 m**2 J**-1)
 Alpha(0;0):
               (au)            (10**-24 esu)      (10**-40 SI)
   iso        0.696411D+02      0.103197D+02      0.114823D+02
   aniso      0.138716D+02      0.205556D+01      0.228711D+01
   xx         0.709119D+02      0.105081D+02      0.116918D+02
   yx         0.169368D+01      0.250977D+00      0.279250D+00
   yy         0.656806D+02      0.973286D+01      0.108293D+02
   zx         0.198039D+01      0.293464D+00      0.326522D+00
   zy        -0.671436D+01     -0.994966D+00     -0.110705D+01
   zz         0.723307D+02      0.107183D+02      0.119257D+02

 ----------------------------------------------------------------------

 Test job not archived.
 1\1\GINC-D1-20\Freq\UDSDPBEP86-FC\Jun-CC-pVTZ\C5H9O1(2)\AVCOPAN\30-Aug
 -2025\1\\#P Geom=AllCheck Guess=TCheck SCRF=Check Test GenChk UDSDPBEP
 86(FC)/Jun-CC-pVTZ Freq\\comment:\\0,2\C\C,1,R1\H,1,R2,2,A2\C,2,R3,1,A
 3,3,D3,0\H,2,R4,1,A4,4,D4,0\C,4,R5,2,A5,1,D5,0\H,4,R6,2,A6,6,D6,0\H,4,
 R7,2,A7,6,D7,0\C,6,R8,4,A8,2,D8,0\H,6,R9,4,A9,9,D9,0\H,6,R10,4,A10,9,D
 10,0\H,9,R11,6,A11,4,D11,0\H,9,R12,6,A12,12,D12,0\O,1,R13,2,A13,3,D13,
 0\H,14,R14,1,A14,2,D14,0\\R1=1.34084422\R2=1.08216168\R3=1.50910493\R4
 =1.08215132\R5=1.54544338\R6=1.09248595\R7=1.09729841\R8=1.54544709\R9
 =1.09222707\R10=1.09079042\R11=1.09248919\R12=1.09730514\R13=2.6993020
 9\R14=0.9700157\A2=124.81849314\A3=111.7601328\A4=124.82009298\A5=102.
 94338016\A6=112.79250538\A7=110.35901238\A8=105.46355377\A9=108.936929
 63\A10=112.92102206\A11=112.44496259\A12=112.03040191\A13=75.54278411\
 A14=80.50661136\D3=177.85814656\D4=182.12193065\D5=13.85110192\D6=121.
 43339461\D7=240.27369312\D8=338.46486339\D9=116.80076253\D10=236.24152
 828\D11=143.1990543\D12=119.76285489\D13=287.45823869\D14=272.16039146
 \\Version=ES64L-G16RevC.01\State=2-A\HF=-270.1309061\MP2=-270.6620764\
 PUHF=-270.1341182\PMP2-0=-270.6628291\S2=0.756904\S2-1=0.749294\S2A=0.
 750037\RMSD=5.865e-09\RMSF=2.979e-04\ZeroPoint=0.127434\Thermal=0.1354
 857\ETot=-270.5265907\HTot=-270.5256465\GTot=-270.5692158\Dipole=-0.74
 11368,-0.2199727,-0.0028508\DipoleDeriv=0.0615323,-0.0300093,0.0543271
 ,-0.0789159,-0.412097,-0.0396919,0.2210043,0.329882,0.0275457,0.061396
 2,-0.0304102,-0.0543833,-0.0792538,-0.4124098,0.0393888,-0.2211363,-0.
 3302249,0.0266942,-0.0599421,0.0051984,0.0600456,0.0082046,0.1759922,0
 .0060865,0.0336697,-0.011981,0.0258053,-0.0038646,0.0026367,-0.0044497
 ,0.0027739,0.2093951,-0.0419939,-0.0049686,0.0106273,0.0433634,-0.0598
 662,0.0052229,-0.0599883,0.0083175,0.1762175,-0.0060352,-0.0336282,0.0
 119965,0.0259176,0.1309285,-0.0247307,0.0000072,-0.0130127,0.1448374,0
 .0000241,-0.0000228,-0.0000447,-0.0106322,0.0217812,-0.029708,0.042881
 9,-0.0361991,-0.0123509,0.1235984,0.0225801,0.0650385,-0.0845287,-0.00
 32504,-0.0036437,0.0629701,0.0494029,-0.1123383,-0.1092851,0.0047661,-
 0.044071,-0.0017993,-0.0038385,0.002441,0.0046284,0.0026955,0.2097119,
 0.0418335,0.005001,-0.0109217,0.0432771,0.0286527,-0.0146918,0.0000117
 ,-0.0780713,-0.1375345,-0.0000005,0.0000173,0.0000307,0.0191601,-0.141
 0763,0.0392851,-0.0000178,0.1074183,0.0182263,0.0000122,-0.0000132,0.0
 000123,0.0371015,0.0217812,-0.029726,-0.0429335,-0.0361849,-0.012404,-
 0.1235915,-0.0225487,-0.0649468,-0.0844855,-0.0033186,-0.0036866,-0.06
 30667,0.0493887,-0.1126625,0.1095093,-0.0047932,0.0442078,-0.0018754,-
 0.1066685,0.1277552,0.0009794,0.0288547,-0.0845201,0.0000015,0.0011603
 ,0.0006295,-0.3230076,0.0557531,-0.0159329,-0.0010121,0.0645814,0.3619
 367,0.0001437,-0.0010879,-0.0002345,0.257464\Polar=67.9326665,7.817254
 6,69.578086,0.0094944,0.0218978,71.4124519\PG=C01 [X(C5H9O1)]\NImag=0\
 \0.60361619,-0.00839437,0.14326772,-0.10647799,0.00116602,0.80535823,-
 0.10286480,-0.00093347,0.00533958,0.60367089,-0.00092232,-0.05388922,0
 .00179827,-0.00847370,0.14327946,-0.00536999,-0.00192426,-0.50432023,0
 .10651049,-0.00109092,0.80530127,-0.25333111,0.00193930,0.13846214,0.0
 0547846,-0.00014203,-0.00553681,0.26127676,0.00070993,-0.03638764,0.00
 160402,0.00026276,0.00437109,0.00018016,-0.00053697,0.02461088,0.13273
 633,0.00019352,-0.15075214,0.02759955,-0.00054487,-0.00925344,-0.14721
 685,-0.00035630,0.15426907,-0.01107370,0.00235178,0.01962799,-0.185666
 05,0.00379820,0.04786840,-0.00024932,-0.00013293,-0.00078037,0.4257576
 4,0.00086905,0.00752628,-0.00045497,0.00292119,-0.07054596,-0.00076778
 ,-0.00029025,0.01123896,0.00044378,-0.00626005,0.55898618,0.03193793,-
 0.00316009,-0.02533015,0.03523713,-0.00056239,-0.09769860,-0.00153621,
 -0.00043592,-0.00464838,-0.04966442,-0.02492225,0.55765762,0.00548171,
 -0.00014094,0.00553455,-0.25334117,0.00200524,-0.13847217,0.00045566,-
 0.00008062,-0.00072580,-0.00988161,-0.00084816,-0.01602132,0.26128493,
 0.00026439,0.00437371,-0.00017764,0.00077390,-0.03638652,-0.00155737,-
 0.00007873,-0.00533776,0.00000534,0.00030309,0.00153814,0.00117292,-0.
 00060278,0.02462168,-0.02759659,0.00054594,-0.00925611,-0.13275256,-0.
 00014158,-0.15076533,0.00072571,-0.00000617,0.00100466,0.01088497,0.00
 038852,0.01052089,0.14722995,0.00030434,0.15428488,-0.03607530,-0.0057
 5874,0.02081043,-0.03607431,-0.00575998,-0.02080783,-0.00344108,-0.000
 15795,-0.00342546,-0.10128928,-0.01430273,-0.04304778,-0.00344140,-0.0
 0015789,0.00342553,0.57956716,0.00250560,0.00084082,-0.00142036,0.0025
 1020,0.00083883,0.00142104,0.00114420,0.00167882,0.00041293,-0.0139086
 2,-0.08481231,-0.02029035,0.00114513,0.00167781,-0.00041359,-0.0313636
 6,0.58629361,0.01176851,-0.00228016,0.00288662,-0.01176914,0.00228135,
 0.00287943,-0.00152280,0.00004253,-0.00163937,-0.04543891,-0.01523974,
 -0.13261704,0.00152249,-0.00004263,-0.00163830,0.00000395,-0.00001137,
 0.39487288,-0.00526671,0.00003275,0.00176253,-0.00184894,-0.02187351,0
 .02424318,0.00022961,0.00208281,0.00112409,-0.05228460,-0.02414173,0.0
 2658521,0.00063246,0.00041118,-0.00105786,0.00318879,0.01222109,-0.015
 18936,0.05562706,-0.00019413,0.00034482,-0.00042706,0.00097047,0.00247
 255,-0.00324652,0.00011443,-0.00015174,-0.00020398,-0.02434784,-0.1603
 5300,0.13118674,-0.00046698,0.00009315,0.00034151,0.00151432,0.0043789
 5,-0.00841570,0.02713065,0.17249063,0.00079102,0.00054476,-0.00030099,
 0.00177349,0.00466416,-0.00786136,0.00014570,-0.00065893,-0.00040758,0
 .02567222,0.12849966,-0.18997683,0.00034337,-0.00023681,0.00021952,0.0
 0479260,0.01341147,-0.01575386,-0.03027505,-0.13843900,0.20948381,-0.0
 0376175,-0.00032373,0.00025213,-0.00690894,0.02841570,0.01370752,0.000
 18155,-0.00238412,0.00054697,-0.05347268,0.04783165,0.01710035,-0.0001
 9899,-0.00062823,-0.00034788,0.00163210,-0.01970968,-0.00634587,0.0012
 0266,-0.00419853,-0.00172053,0.06096438,0.00066848,0.00087985,0.001045
 25,0.00185603,0.00229645,-0.00042712,0.00004262,-0.00012659,0.00002780
 ,0.04295817,-0.25687283,-0.07934460,0.00052525,-0.00029238,-0.00046248
 ,0.00012471,-0.00490802,-0.00028010,0.00477852,-0.02165010,-0.00763563
 ,-0.04915983,0.27902884,0.00160328,-0.00037270,-0.00025651,0.00501080,
 -0.00946720,-0.00612771,0.00008660,0.00112901,-0.00026528,0.01458852,-
 0.08076997,-0.07803865,0.00018245,-0.00009978,-0.00003862,0.00437745,-
 0.02189038,-0.00604005,-0.00524558,0.02256968,0.00838952,-0.01976943,0
 .08988671,0.08552269,-0.18563092,0.00379416,-0.04787014,-0.01106933,0.
 00234730,-0.01961927,-0.00987937,0.00030328,-0.01088496,0.00626275,0.0
 0521857,-0.00397546,-0.00024904,-0.00013544,0.00078079,-0.10126928,-0.
 01390124,0.04543657,-0.00308947,-0.00086713,-0.00217329,-0.00017798,-0
 .00049314,0.00032293,0.42569583,0.00290579,-0.07055060,0.00076036,0.00
 086589,0.00752995,0.00046035,-0.00085099,0.00153664,-0.00039172,0.0052
 1906,-0.00382662,-0.00545898,-0.00028640,0.01123966,-0.00044149,-0.014
 29223,-0.08480414,0.01523029,-0.00160072,0.00053075,0.00000424,0.00058
 610,-0.00017885,-0.00146671,-0.00628404,0.55894667,-0.03522537,0.00056
 515,-0.09769435,-0.03193985,0.00315454,-0.02532708,0.01602051,-0.00117
 325,0.01052102,0.00397472,0.00545619,-0.03382018,0.00153713,0.00043620
 ,-0.00464743,0.04304674,0.02028213,-0.13262045,-0.00148812,-0.00229563
 ,-0.00260907,-0.00024838,-0.00112729,-0.00066654,0.04966035,0.02491607
 ,0.55761982,0.00033206,0.00021700,0.00088945,0.00033315,0.00021626,-0.
 00088913,-0.00023899,0.00022774,-0.00004134,-0.00335497,-0.01765210,-0
 .00063343,-0.00023883,0.00022750,0.00004122,-0.06100371,-0.04889020,0.
 00000374,0.00135566,0.00017712,0.00054316,-0.00156551,-0.00084420,-0.0
 0185629,-0.00335500,-0.01765031,0.00063510,0.06137892,-0.00016447,0.00
 013960,0.00003087,-0.00016417,0.00013911,-0.00003101,-0.00014347,-0.00
 013670,-0.00001617,0.00007702,-0.00620310,-0.00033159,-0.00014347,-0.0
 0013649,0.00001616,-0.05038729,-0.30287499,0.00001690,0.00030760,0.001
 60514,-0.00016973,-0.00120322,0.00117652,-0.00100145,0.00007877,-0.006
 19926,0.00033184,0.05616491,0.32524765,-0.00056368,0.00040109,-0.00116
 067,0.00056473,-0.00040133,-0.00115973,0.00021236,-0.00032203,0.000157
 23,-0.00652842,-0.02753118,-0.00402956,-0.00021223,0.00032168,0.000157
 02,0.00000366,0.00001604,-0.04220238,0.00087727,-0.00028300,0.00127583
 ,-0.00419224,-0.00139364,-0.00319062,0.00652876,0.02753091,-0.00403289
 ,-0.00000372,-0.00001681,0.05646958,-0.00217625,-0.00043005,0.00223967
 ,-0.00217692,-0.00043022,-0.00224044,-0.00066241,-0.00022185,-0.000421
 56,-0.01139682,0.00799054,0.00224062,-0.00066255,-0.00022154,0.0004216
 4,-0.24657256,0.11611456,-0.00000544,-0.00075116,-0.00021329,-0.000543
 07,0.00111339,-0.00041369,0.00044918,-0.01139623,0.00799039,-0.0022416
 7,0.00666213,-0.00357099,0.00000007,0.26770444,-0.00188589,0.00027070,
 0.00119700,-0.00188633,0.00027003,-0.00119732,-0.00050309,0.00011834,-
 0.00022649,-0.00865533,0.00297295,-0.00053215,-0.00050312,0.00011846,0
 .00022653,0.11943571,-0.11749040,0.00000365,0.00009047,0.00012091,-0.0
 0015981,0.00003005,0.00111783,0.00045370,-0.00865335,0.00297032,0.0005
 3286,0.02854718,-0.01562894,0.00000061,-0.12611641,0.12393695,0.002172
 93,0.00054622,-0.00443825,-0.00217324,-0.00054637,-0.00443648,0.001053
 43,0.00022152,0.00082434,-0.02214112,0.01300762,0.00105103,-0.00105349
 ,-0.00022138,0.00082435,-0.00000667,0.00000470,-0.04640236,-0.00080360
 ,0.00015055,-0.00107820,0.00097653,0.00004477,0.00167400,0.02214278,-0
 .01300840,0.00105051,-0.00000196,0.00000094,-0.00031649,0.00000639,-0.
 00000472,0.05061478,-0.00185198,-0.02187567,-0.02423970,-0.00526726,0.
 00003191,-0.00176372,0.00063152,0.00041116,0.00105759,-0.00308972,-0.0
 0160107,0.00148766,0.00023039,0.00208375,-0.00112328,0.00318815,0.0122
 2273,0.01518606,0.00050410,0.00012147,0.00045878,0.00056095,0.00001812
 ,0.00012741,-0.05227560,-0.02414248,-0.02657241,0.00135561,0.00030752,
 -0.00087716,-0.00075108,0.00009044,0.00080394,0.05562090,0.00096760,0.
 00247401,0.00324074,-0.00019394,0.00034442,0.00042759,-0.00046691,0.00
 009296,-0.00034136,-0.00086740,0.00053109,0.00229493,0.00011435,-0.000
 15180,0.00020388,0.00151343,0.00437899,0.00841295,0.00012135,-0.000005
 99,0.00018683,0.00028473,-0.00004781,0.00057617,-0.02434453,-0.1603980
 0,-0.13119241,0.00017666,0.00160531,0.00028336,-0.00021344,0.00012091,
 -0.00015044,0.02712593,0.17254202,-0.00177560,-0.00466530,-0.00786178,
 -0.00079054,-0.00054394,-0.00029924,-0.00034358,0.00023651,0.00021915,
 0.00217412,-0.00000471,-0.00260938,-0.00014551,0.00065906,-0.00040732,
 -0.00479179,-0.01341488,-0.01575349,-0.00045881,-0.00018698,-0.0006610
 9,-0.00023915,-0.00003212,-0.00070188,-0.02565630,-0.12850578,-0.18992
 418,-0.00054301,0.00016955,0.00127582,0.00054313,0.00015975,-0.0010785
 0,0.03026059,0.13844376,0.20942929,-0.00690574,0.02841329,-0.01371009,
 -0.00376365,-0.00032410,-0.00025334,-0.00019885,-0.00062935,0.00034883
 ,-0.00017750,0.00058616,0.00024874,0.00018100,-0.00238446,-0.00054731,
 0.00163388,-0.01970588,0.00634894,0.00056102,0.00028478,0.00023921,0.0
 0003910,0.00020428,-0.00001086,-0.05348702,0.04786051,-0.01712637,-0.0
 0156507,-0.00120273,0.00419184,0.00111338,0.00002982,-0.00097580,0.001
 20390,-0.00419629,0.00172094,0.06097955,0.00185252,0.00230955,0.000414
 84,0.00067045,0.00087962,-0.00103747,0.00052601,-0.00029283,0.00046294
 ,-0.00049347,-0.00017831,0.00112749,0.00004275,-0.00012757,-0.00002739
 ,0.00012494,-0.00491300,0.00028073,0.00001838,-0.00004766,0.00003230,0
 .00020422,-0.00040638,0.00033015,0.04297584,-0.25679429,0.07936223,-0.
 00084516,0.00117641,0.00139558,-0.00041381,0.00111820,-0.00004461,0.00
 478376,-0.02166039,0.00764456,-0.04918539,0.27894901,-0.00500921,0.009
 46258,-0.00612926,-0.00160390,0.00037407,-0.00025674,-0.00018276,0.000
 09980,-0.00003851,-0.00032309,0.00146673,-0.00066751,-0.00008681,-0.00
 112915,-0.00026558,-0.00437985,0.02188984,-0.00604364,-0.00012737,-0.0
 0057623,-0.00070177,0.00001053,-0.00033009,0.00006504,-0.01461145,0.08
 079796,-0.07805878,0.00185603,0.00100069,-0.00319092,-0.00044877,-0.00
 045362,0.00167379,0.00524712,-0.02256032,0.00839098,0.01979780,-0.0899
 1509,0.08554654,-0.00061865,0.00277515,-0.00415941,-0.00062739,0.00278
 466,0.00416054,-0.00015768,0.00003481,0.00016212,-0.00055004,-0.000015
 62,0.00044786,-0.00016042,0.00003881,-0.00016474,-0.00007989,-0.000202
 05,0.00000147,0.00012677,-0.00022304,-0.00013203,0.00054384,-0.0005771
 1,-0.00031934,-0.00054427,-0.00001377,-0.00044153,-0.00008733,-0.00003
 290,-0.00000148,0.00013326,0.00002310,-0.00000024,0.00012711,-0.000219
 60,0.00012980,0.00053633,-0.00057253,0.00031556,0.50484205,0.00009020,
 0.00070827,-0.00894849,0.00009225,0.00070091,0.00895615,-0.00089326,-0
 .00101093,0.00061701,-0.00015784,0.00025442,-0.00029108,-0.00090087,-0
 .00102500,-0.00061759,-0.00025383,-0.00018172,0.00000040,0.00026544,-0
 .00019882,-0.00006729,0.00057120,-0.00045572,-0.00027272,-0.00015672,0
 .00025802,0.00029406,-0.00015565,-0.00001566,-0.00000063,0.00004122,0.
 00000683,-0.00000025,0.00026642,-0.00019803,0.00006597,0.00056771,-0.0
 0045512,0.00027117,-0.06785079,0.01272210,0.00017155,-0.00004532,-0.00
 077677,-0.00016287,0.00006256,-0.00069068,-0.00042254,-0.00039627,0.00
 004272,0.00023681,-0.00029886,-0.00038036,0.00041763,0.00040127,0.0000
 3925,-0.00000198,0.00000093,-0.00020809,-0.00001340,0.00019868,0.00021
 539,-0.00068496,0.00032834,0.00033468,-0.00023603,0.00030017,-0.000376
 92,0.00000013,0.00000037,0.00027020,-0.00000031,-0.00000043,0.00004550
 ,0.00001434,-0.00019649,0.00021522,0.00068187,-0.00032867,0.00033211,0
 .00262737,-0.00036460,0.00063762,0.00012695,-0.00166647,0.00153887,0.0
 0012626,-0.00167343,-0.00153742,-0.00009477,0.00011130,-0.00007913,0.0
 0046590,-0.00030545,-0.00040688,-0.00009213,0.00010645,0.00008044,0.00
 003673,-0.00018218,-0.00000020,-0.00018723,0.00019769,0.00008441,-0.00
 015213,0.00031178,0.00045289,0.00046493,-0.00030682,0.00040917,-0.0000
 0813,0.00007691,0.00000023,-0.00018062,-0.00004326,0.00000012,-0.00018
 698,0.00019808,-0.00008428,-0.00015034,0.00031147,-0.00045385,-0.50348
 369,0.06847452,-0.00262761,0.50331523,0.00072762,-0.00230788,0.0001711
 5,0.00072847,-0.00230071,-0.00016552,0.00013911,-0.00020348,-0.0000824
 3,0.00011614,-0.00025589,-0.00045268,0.00014060,-0.00020508,0.00008341
 ,-0.00027880,-0.00010325,0.00000089,0.00015570,0.00037040,0.00002376,-
 0.00031630,0.00043920,0.00039550,0.00011766,-0.00026026,0.00045733,0.0
 0008326,0.00010541,-0.00000064,0.00010858,-0.00002309,-0.00000013,0.00
 015601,0.00037232,-0.00002545,-0.00031836,0.00044277,-0.00039832,0.064
 05088,-0.01110954,0.00033833,-0.06561058,0.01503908,0.00083690,-0.0009
 7746,0.00003237,-0.00084369,0.00096365,0.00001592,0.00005510,-0.000164
 68,-0.00003349,-0.00015144,0.00072696,0.00058709,-0.00005025,0.0001639
 7,-0.00003186,0.00000103,0.00000184,0.00028012,0.00006688,-0.00037307,
 -0.00023332,0.00095444,-0.00029980,-0.00066007,0.00015473,-0.00072727,
 0.00058654,0.00000004,-0.00000053,-0.00032241,0.00000055,0.00000043,-0
 .00000802,-0.00006722,0.00037081,-0.00023357,-0.00095438,0.00030242,-0
 .00065575,-0.00262594,0.00035790,0.00030013,0.00262326,-0.00034517,0.0
 0037632\\0.00064949,-0.00028464,0.00002691,0.00064924,-0.00026965,-0.0
 0002790,0.00018314,0.00001705,-0.00018112,-0.00025753,0.00012111,0.000
 69887,0.00018088,0.00000258,0.00018074,-0.00056854,-0.00015928,-0.0000
 0112,-0.00007131,-0.00021384,0.00022789,-0.00009662,0.00025884,0.00011
 618,-0.00026250,0.00011747,-0.00070677,-0.00011226,-0.00032351,0.00000
 093,-0.00030888,0.00015443,0.00000002,-0.00007281,-0.00021682,-0.00022
 658,-0.00009396,0.00025292,-0.00011215,0.00061004,0.00041515,0.0000028
 3,-0.00042837,0.00012821,0.00000128\\\@


 ON A CLEAR DISK YOU CAN SEEK FOREVER.
 Job cpu time:       1 days 22 hours 33 minutes 39.9 seconds.
 Elapsed time:       0 days  5 hours 54 minutes 29.2 seconds.
 File lengths (MBytes):  RWF=  90729 Int=      0 D2E=      0 Chk=     21 Scr=      1
 Normal termination of Gaussian 16 at Sat Aug 30 05:56:14 2025.
