 Entering Gaussian System, Link 0=g16
 Input=run.inp
 Output=run.out
 Initial command:
 /apps/eb/gaussian/16-AVX2/g16/l1.exe "/scratch/gtemp/avcopan/Gau-2204710.inp" -scrdir="/scratch/gtemp/avcopan/"
 Entering Link 1 = /apps/eb/gaussian/16-AVX2/g16/l1.exe PID=   2204711.
  
 Copyright (c) 1988-2019, Gaussian, Inc.  All Rights Reserved.
  
 This is part of the Gaussian(R) 16 program.  It is based on
 the Gaussian(R) 09 system (copyright 2009, Gaussian, Inc.),
 the Gaussian(R) 03 system (copyright 2003, Gaussian, Inc.),
 the Gaussian(R) 98 system (copyright 1998, Gaussian, Inc.),
 the Gaussian(R) 94 system (copyright 1995, Gaussian, Inc.),
 the Gaussian 92(TM) system (copyright 1992, Gaussian, Inc.),
 the Gaussian 90(TM) system (copyright 1990, Gaussian, Inc.),
 the Gaussian 88(TM) system (copyright 1988, Gaussian, Inc.),
 the Gaussian 86(TM) system (copyright 1986, Carnegie Mellon
 University), and the Gaussian 82(TM) system (copyright 1983,
 Carnegie Mellon University). Gaussian is a federally registered
 trademark of Gaussian, Inc.
  
 This software contains proprietary and confidential information,
 including trade secrets, belonging to Gaussian, Inc.
  
 This software is provided under written license and may be
 used, copied, transmitted, or stored only in accord with that
 written license.
  
 The following legend is applicable only to US Government
 contracts under FAR:
  
                    RESTRICTED RIGHTS LEGEND
  
 Use, reproduction and disclosure by the US Government is
 subject to restrictions as set forth in subparagraphs (a)
 and (c) of the Commercial Computer Software - Restricted
 Rights clause in FAR 52.227-19.
  
 Gaussian, Inc.
 340 Quinnipiac St., Bldg. 40, Wallingford CT 06492
  
  
 ---------------------------------------------------------------
 Warning -- This program may not be used in any manner that
 competes with the business of Gaussian, Inc. or will provide
 assistance to any competitor of Gaussian, Inc.  The licensee
 of this program is prohibited from giving any competitor of
 Gaussian, Inc. access to this program.  By using this program,
 the user acknowledges that Gaussian, Inc. is engaged in the
 business of creating and licensing software in the field of
 computational chemistry and represents and warrants to the
 licensee that it is not a competitor of Gaussian, Inc. and that
 it will not use this program in any manner prohibited above.
 ---------------------------------------------------------------
  

 Cite this work as:
 Gaussian 16, Revision C.01,
 M. J. Frisch, G. W. Trucks, H. B. Schlegel, G. E. Scuseria, 
 M. A. Robb, J. R. Cheeseman, G. Scalmani, V. Barone, 
 G. A. Petersson, H. Nakatsuji, X. Li, M. Caricato, A. V. Marenich, 
 J. Bloino, B. G. Janesko, R. Gomperts, B. Mennucci, H. P. Hratchian, 
 J. V. Ortiz, A. F. Izmaylov, J. L. Sonnenberg, D. Williams-Young, 
 F. Ding, F. Lipparini, F. Egidi, J. Goings, B. Peng, A. Petrone, 
 T. Henderson, D. Ranasinghe, V. G. Zakrzewski, J. Gao, N. Rega, 
 G. Zheng, W. Liang, M. Hada, M. Ehara, K. Toyota, R. Fukuda, 
 J. Hasegawa, M. Ishida, T. Nakajima, Y. Honda, O. Kitao, H. Nakai, 
 T. Vreven, K. Throssell, J. A. Montgomery, Jr., J. E. Peralta, 
 F. Ogliaro, M. J. Bearpark, J. J. Heyd, E. N. Brothers, K. N. Kudin, 
 V. N. Staroverov, T. A. Keith, R. Kobayashi, J. Normand, 
 K. Raghavachari, A. P. Rendell, J. C. Burant, S. S. Iyengar, 
 J. Tomasi, M. Cossi, J. M. Millam, M. Klene, C. Adamo, R. Cammi, 
 J. W. Ochterski, R. L. Martin, K. Morokuma, O. Farkas, 
 J. B. Foresman, and D. J. Fox, Gaussian, Inc., Wallingford CT, 2019.
 
 ******************************************
 Gaussian 16:  ES64L-G16RevC.01  3-Jul-2019
                19-Sep-2025 
 ******************************************
 %mem=2GB
 %NProcShared=8
 Will use up to    8 processors via shared memory.
 ----------------------------------------------------------------------
 #P wb97xd/def2svp # SCF=(xqc) # POpt=(CALCFC,TS,NOEIGEN,MAXCYCLES=60) 
 # int=ultrafine
 ----------------------------------------------------------------------
 1/5=1,6=60,10=4,11=1,26=4,38=1/1,3;
 2/12=2,17=6,18=5,29=3,40=1/2;
 3/5=43,7=101,11=2,25=1,30=1,71=2,74=-58,75=-5,140=1/1,2,3;
 4//1;
 5/5=2,8=3,13=1,38=5/2,8;
 8/6=4,10=90,11=11/1;
 11/6=1,8=1,9=11,15=111,16=1/1,2,10;
 10/6=1,13=1/2;
 6/7=2,8=2,9=2,10=2,28=1/1;
 7/10=1,25=1/1,2,3,16;
 1/5=1,6=60,10=4,11=1,26=4/3(2);
 2/29=3/2;
 99//99;
 2/29=3/2;
 3/5=43,7=101,11=2,25=1,30=1,71=1,74=-58,75=-5/1,2,3;
 4/5=5,16=3,69=1/1;
 5/5=2,8=3,13=1,38=5/2,8;
 7//1,2,3,16;
 1/5=1,6=60,11=1,26=4/3(-5);
 2/29=3/2;
 6/7=2,8=2,9=2,10=2,19=2,28=1/1;
 99/9=1/99;
 Leave Link    1 at Fri Sep 19 15:30:05 2025, MaxMem=   268435456 cpu:               0.4 elap:               0.1
 (Enter /apps/eb/gaussian/16-AVX2/g16/l101.exe)
 --------
 comment:
 --------
 Symbolic Z-matrix:
 Charge =  0 Multiplicity = 2
 C
 C                    1    R1
 O                    1    R2       2    A2
 C                    2    R3       1    A3       3    D3       0
 H                    2    R4       1    A4       4    D4       0
 H                    2    R5       1    A5       4    D5       0
 C                    4    R6       2    A6       1    D6       0
 H                    4    R7       2    A7       7    D7       0
 C                    7    R8       4    A8       2    D8       0
 H                    7    R9       4    A9       9    D9       0
 H                    9    R10      7    A10      4    D10      0
 H                    9    R11      7    A11      11   D11      0
 O                    3    R12      1    A12      9    D12      0
 H                    13   R13      3    A13      1    D13      0
       Variables:
  R1                    1.4738                   
  R2                    1.3608                   
  R3                    1.4118                   
  R4                    1.0899                   
  R5                    1.3424                   
  R6                    1.3775                   
  R7                    1.0904                   
  R8                    1.5063                   
  R9                    1.09                     
  R10                   1.1086                   
  R11                   1.1033                   
  R12                   1.4486                   
  R13                   0.9671                   
  A2                  122.2429                   
  A3                  108.3256                   
  A4                  123.6608                   
  A5                   47.2728                   
  A6                  110.3431                   
  A7                  124.2855                   
  A8                  110.8076                   
  A9                  125.483                    
  A10                 112.0362                   
  A11                 113.8766                   
  A12                 108.5763                   
  A13                 100.8646                   
  D3                  159.6295                   
  D4                  176.5793                   
  D5                   99.0335                   
  D6                   -4.5141                   
  D7                  176.9158                   
  D8                  358.1223                   
  D9                  180.4356                   
  D10                 251.3279                   
  D11                 239.123                    
  D12                  75.4151                   
  D13                 102.6765                   
 
 ITRead=  0  0  0  0  0  0  0  0  0  0  0  0  0  0
 MicOpt= -1 -1 -1 -1 -1 -1 -1 -1 -1 -1 -1 -1 -1 -1
 NAtoms=     14 NQM=       14 NQMF=       0 NMMI=      0 NMMIF=      0
                NMic=       0 NMicF=      0.
                    Isotopes and Nuclear Properties:
 (Nuclear quadrupole moments (NQMom) in fm**2, nuclear magnetic moments (NMagM)
  in nuclear magnetons)

  Atom         1           2           3           4           5           6           7           8           9          10
 IAtWgt=          12          12          16          12           1           1          12           1          12           1
 AtmWgt=  12.0000000  12.0000000  15.9949146  12.0000000   1.0078250   1.0078250  12.0000000   1.0078250  12.0000000   1.0078250
 NucSpn=           0           0           0           0           1           1           0           1           0           1
 AtZEff=  -0.0000000  -0.0000000  -0.0000000  -0.0000000  -0.0000000  -0.0000000  -0.0000000  -0.0000000  -0.0000000  -0.0000000
 NQMom=    0.0000000   0.0000000   0.0000000   0.0000000   0.0000000   0.0000000   0.0000000   0.0000000   0.0000000   0.0000000
 NMagM=    0.0000000   0.0000000   0.0000000   0.0000000   2.7928460   2.7928460   0.0000000   2.7928460   0.0000000   2.7928460
 AtZNuc=   6.0000000   6.0000000   8.0000000   6.0000000   1.0000000   1.0000000   6.0000000   1.0000000   6.0000000   1.0000000

  Atom        11          12          13          14
 IAtWgt=           1           1          16           1
 AtmWgt=   1.0078250   1.0078250  15.9949146   1.0078250
 NucSpn=           1           1           0           1
 AtZEff=  -0.0000000  -0.0000000  -0.0000000  -0.0000000
 NQMom=    0.0000000   0.0000000   0.0000000   0.0000000
 NMagM=    2.7928460   2.7928460   0.0000000   2.7928460
 AtZNuc=   1.0000000   1.0000000   8.0000000   1.0000000
 Leave Link  101 at Fri Sep 19 15:30:06 2025, MaxMem=   268435456 cpu:               1.0 elap:               0.3
 (Enter /apps/eb/gaussian/16-AVX2/g16/l103.exe)

 GradGradGradGradGradGradGradGradGradGradGradGradGradGradGradGradGradGrad
 Berny optimization.
 Initialization pass.
                       ----------------------------
                       !    Initial Parameters    !
                       ! (Angstroms and Degrees)  !
 ----------------------                            ----------------------
 !      Name          Value   Derivative information (Atomic Units)     !
 ------------------------------------------------------------------------
 !       R1          1.4738   calculate D2E/DX2 analytically            !
 !       R2          1.3608   calculate D2E/DX2 analytically            !
 !       R3          1.4118   calculate D2E/DX2 analytically            !
 !       R4          1.0899   calculate D2E/DX2 analytically            !
 !       R5          1.3424   calculate D2E/DX2 analytically            !
 !       R6          1.3775   calculate D2E/DX2 analytically            !
 !       R7          1.0904   calculate D2E/DX2 analytically            !
 !       R8          1.5063   calculate D2E/DX2 analytically            !
 !       R9          1.09     calculate D2E/DX2 analytically            !
 !       R10         1.1086   calculate D2E/DX2 analytically            !
 !       R11         1.1033   calculate D2E/DX2 analytically            !
 !       R12         1.4486   calculate D2E/DX2 analytically            !
 !       R13         0.9671   calculate D2E/DX2 analytically            !
 !       A2        122.2429   calculate D2E/DX2 analytically            !
 !       A3        108.3256   calculate D2E/DX2 analytically            !
 !       A4        123.6608   calculate D2E/DX2 analytically            !
 !       A5         47.2728   calculate D2E/DX2 analytically            !
 !       A6        110.3431   calculate D2E/DX2 analytically            !
 !       A7        124.2855   calculate D2E/DX2 analytically            !
 !       A8        110.8076   calculate D2E/DX2 analytically            !
 !       A9        125.483    calculate D2E/DX2 analytically            !
 !       A10       112.0362   calculate D2E/DX2 analytically            !
 !       A11       113.8766   calculate D2E/DX2 analytically            !
 !       A12       108.5763   calculate D2E/DX2 analytically            !
 !       A13       100.8646   calculate D2E/DX2 analytically            !
 !       D3        159.6295   calculate D2E/DX2 analytically            !
 !       D4        176.5793   calculate D2E/DX2 analytically            !
 !       D5         99.0335   calculate D2E/DX2 analytically            !
 !       D6         -4.5141   calculate D2E/DX2 analytically            !
 !       D7        176.9158   calculate D2E/DX2 analytically            !
 !       D8        358.1223   calculate D2E/DX2 analytically            !
 !       D9        180.4356   calculate D2E/DX2 analytically            !
 !       D10       251.3279   calculate D2E/DX2 analytically            !
 !       D11       239.123    calculate D2E/DX2 analytically            !
 !       D12        75.4151   calculate D2E/DX2 analytically            !
 !       D13       102.6765   calculate D2E/DX2 analytically            !
 ------------------------------------------------------------------------
 Trust Radius=3.00D-01 FncErr=1.00D-07 GrdErr=1.00D-06 EigMax=2.50D+02 EigMin=1.00D-04
 Number of steps in this run=     60 maximum allowed number of steps=    100.
 Search for a saddle point of order  1.
 GradGradGradGradGradGradGradGradGradGradGradGradGradGradGradGradGradGrad

 Leave Link  103 at Fri Sep 19 15:30:06 2025, MaxMem=   268435456 cpu:               0.3 elap:               0.1
 (Enter /apps/eb/gaussian/16-AVX2/g16/l202.exe)
 ---------------------------------------------------------------------------------------------------
                            Z-MATRIX (ANGSTROMS AND DEGREES)
   CD    Cent   Atom    N1       Length/X        N2       Alpha/Y        N3        Beta/Z          J
 ---------------------------------------------------------------------------------------------------
      1      1  C 
      2      2  C        1   1.473800(     1)
      3      3  O        1   1.360800(     2)      2  122.243(    14)
      4      4  C        2   1.411800(     3)      1  108.326(    15)      3  159.630(    26)      0
      5      5  H        2   1.089900(     4)      1  123.661(    16)      4  176.579(    27)      0
      6      6  H        2   1.342400(     5)      1   47.273(    17)      4   99.034(    28)      0
      7      7  C        4   1.377500(     6)      2  110.343(    18)      1   -4.514(    29)      0
      8      8  H        4   1.090400(     7)      2  124.285(    19)      7  176.916(    30)      0
      9      9  C        7   1.506300(     8)      4  110.808(    20)      2  358.122(    31)      0
     10     10  H        7   1.090000(     9)      4  125.483(    21)      9  180.436(    32)      0
     11     11  H        9   1.108600(    10)      7  112.036(    22)      4  251.328(    33)      0
     12     12  H        9   1.103300(    11)      7  113.877(    23)     11  239.123(    34)      0
     13     13  O        3   1.448600(    12)      1  108.576(    24)      9   75.415(    35)      0
     14     14  H       13   0.967100(    13)      3  100.865(    25)      1  102.677(    36)      0
 ---------------------------------------------------------------------------------------------------
                         Z-Matrix orientation:                         
 ---------------------------------------------------------------------
 Center     Atomic      Atomic             Coordinates (Angstroms)
 Number     Number       Type             X           Y           Z
 ---------------------------------------------------------------------
      1          6           0        0.000000    0.000000    0.000000
      2          6           0        0.000000    0.000000    1.473800
      3          8           0        1.150956    0.000000   -0.726000
      4          6           0       -1.256386    0.466510    1.917693
      5          1           0        0.830071   -0.365953    2.077904
      6          1           0       -0.193850   -0.966876    0.562970
      7          6           0       -2.026679    0.860962    0.845983
      8          1           0       -1.581256    0.460063    2.958554
      9          6           0       -1.264901    0.710362   -0.444735
     10          1           0       -3.046934    1.239949    0.905551
     11          1           0       -0.978032    1.690855   -0.875239
     12          1           0       -1.821816    0.174421   -1.232062
     13          8           0        1.785445    1.294609   -0.585102
     14          1           0        2.486668    1.086070    0.047417
 ---------------------------------------------------------------------
                    Distance matrix (angstroms):
                    1          2          3          4          5
     1  C    0.000000
     2  C    1.473800   0.000000
     3  O    1.360800   2.482704   0.000000
     4  C    2.339591   1.411800   3.605835   0.000000
     5  H    2.267295   1.089900   2.845834   2.252103   0.000000
     6  H    1.135501   1.342400   2.098761   2.240279   1.924721
     7  C    2.358892   2.289725   3.648254   1.377500   3.344245
     8  H    3.386011   2.217323   4.610052   1.090400   2.696728
     9  C    1.517359   2.405279   2.533790   2.374995   3.451242
    10  H    3.411936   3.338291   4.671373   2.197431   4.357121
    11  H    2.140463   3.055082   2.722840   3.062185   4.027500
    12  H    2.206221   3.266669   3.020579   3.213407   4.275557
    13  O    2.281704   3.017102   1.448600   4.025230   3.280520
    14  H    2.713911   3.065556   1.887286   4.229922   2.995924
                    6          7          8          9         10
     6  H    0.000000
     7  C    2.603911   0.000000
     8  H    3.114461   2.195923   0.000000
     9  C    2.230638   1.506300   3.427113   0.000000
    10  H    3.623193   1.090000   2.640314   2.297690   0.000000
    11  H    3.122006   2.179676   4.071449   1.108600   2.766746
    12  H    2.678614   2.198085   4.207222   1.103300   2.684335
    13  O    3.217141   4.094918   4.958694   3.108965   5.057364
    14  H    3.415488   4.588974   5.041290   3.802320   5.601859
                   11         12         13         14
    11  H    0.000000
    12  H    1.771684   0.000000
    13  O    2.806778   3.832194   0.000000
    14  H    3.636098   4.585979   0.967100   0.000000
 Stoichiometry    C5H7O2(2)
 Framework group  C1[X(C5H7O2)]
 Deg. of freedom    36
 Full point group                 C1      NOp   1
 Largest Abelian subgroup         C1      NOp   1
 Largest concise Abelian subgroup C1      NOp   1
                         Standard orientation:                         
 ---------------------------------------------------------------------
 Center     Atomic      Atomic             Coordinates (Angstroms)
 Number     Number       Type             X           Y           Z
 ---------------------------------------------------------------------
      1          6           0        0.277177   -0.059626    0.530351
      2          6           0       -0.457414    1.167930    0.175994
      3          8           0        1.636404   -0.104006    0.578393
      4          6           0       -1.755497    0.803253   -0.242541
      5          1           0       -0.048549    2.171500    0.292433
      6          1           0       -0.196059    0.569335    1.348775
      7          6           0       -1.878764   -0.568192   -0.280607
      8          1           0       -2.555978    1.513746   -0.450875
      9          6           0       -0.579145   -1.232771    0.091236
     10          1           0       -2.782897   -1.114994   -0.548283
     11          1           0       -0.090983   -1.709698   -0.782396
     12          1           0       -0.682976   -2.018645    0.858629
     13          8           0        2.149001   -0.018427   -0.773776
     14          1           0        2.436062    0.904662   -0.801819
 ---------------------------------------------------------------------
 Rotational constants (GHZ):           5.7576207           2.0285048           1.7597025
 Leave Link  202 at Fri Sep 19 15:30:06 2025, MaxMem=   268435456 cpu:               0.3 elap:               0.1
 (Enter /apps/eb/gaussian/16-AVX2/g16/l301.exe)
 Standard basis: def2SVP (5D, 7F)
 Ernie: Thresh=  0.10000D-02 Tol=  0.10000D-05 Strict=F.
 There are   140 symmetry adapted cartesian basis functions of A   symmetry.
 There are   133 symmetry adapted basis functions of A   symmetry.
   133 basis functions,   224 primitive gaussians,   140 cartesian basis functions
    27 alpha electrons       26 beta electrons
       nuclear repulsion energy       299.9298093600 Hartrees.
 IExCor= 4639 DFT=T Ex+Corr=wB97XD ExCW=0 ScaHFX=  1.000000
 ScaDFX=  1.000000  1.000000  1.000000  1.000000 ScalE2=  1.000000  1.000000
 IRadAn=      5 IRanWt=     -1 IRanGd=            0 ICorTp=0 IEmpDi=121
 HFx  wShort=  0.000000 wLong=  0.200000 cFull=  0.222036 cShort=  0.000000 cLong=  0.777964
 DFx  wShort=  0.000000 wLong=  0.200000 cFull=  0.000000 cShort=  0.000000 cLong=  1.000000
 NAtoms=   14 NActive=   14 NUniq=   14 SFac= 1.00D+00 NAtFMM=   60 NAOKFM=F Big=F
 Integral buffers will be    131072 words long.
 Raffenetti 2 integral format.
 Two-electron integral symmetry is turned on.
 R6Disp:  Grimme-D2 Dispersion energy=       -0.0060362535 Hartrees.
 Nuclear repulsion after empirical dispersion term =      299.9237731065 Hartrees.
 Leave Link  301 at Fri Sep 19 15:30:06 2025, MaxMem=   268435456 cpu:               0.4 elap:               0.1
 (Enter /apps/eb/gaussian/16-AVX2/g16/l302.exe)
 NPDir=0 NMtPBC=     1 NCelOv=     1 NCel=       1 NClECP=     1 NCelD=      1
         NCelK=      1 NCelE2=     1 NClLst=     1 CellRange=     0.0.
 One-electron integrals computed using PRISM.
 One-electron integral symmetry used in STVInt
   1 Symmetry operations used in ECPInt.
 ECPInt:  NShTT=    2016 NPrTT=    7252 LenC2=    2009 LenP2D=    6007.
 LDataN:  DoStor=T MaxTD1= 4 Len=   56
 NBasis=   133 RedAO= T EigKep=  9.02D-04  NBF=   133
 NBsUse=   133 1.00D-06 EigRej= -1.00D+00 NBFU=   133
 Precomputing XC quadrature grid using
 IXCGrd= 4 IRadAn=           5 IRanWt=          -1 IRanGd=           0 AccXCQ= 0.00D+00.
 Generated NRdTot=       0 NPtTot=           0 NUsed=           0 NTot=          32
 NSgBfM=   140   140   140   140   140 MxSgAt=    14 MxSgA2=    14.
 Leave Link  302 at Fri Sep 19 15:30:08 2025, MaxMem=   268435456 cpu:               7.9 elap:               2.0
 (Enter /apps/eb/gaussian/16-AVX2/g16/l303.exe)
 DipDrv:  MaxL=1.
 Leave Link  303 at Fri Sep 19 15:30:08 2025, MaxMem=   268435456 cpu:               1.0 elap:               0.3
 (Enter /apps/eb/gaussian/16-AVX2/g16/l401.exe)
 ExpMin= 1.22D-01 ExpMax= 2.27D+03 ExpMxC= 3.41D+02 IAcc=3 IRadAn=         5 AccDes= 0.00D+00
 Harris functional with IExCor= 4639 and IRadAn=       5 diagonalized for initial guess.
 HarFok:  IExCor= 4639 AccDes= 0.00D+00 IRadAn=         5 IDoV= 1 UseB2=F ITyADJ=14
 ICtDFT=  3500011 ScaDFX=  1.000000  1.000000  1.000000  1.000000
 FoFCou: FMM=F IPFlag=           0 FMFlag=      100000 FMFlg1=           0
         NFxFlg=           0 DoJE=T BraDBF=F KetDBF=T FulRan=T
         wScrn=  0.000000 ICntrl=       500 IOpCl=  0 I1Cent=   200000004 NGrid=           0
         NMat0=    1 NMatS0=      1 NMatT0=    0 NMatD0=    1 NMtDS0=    0 NMtDT0=    0
 Petite list used in FoFCou.
 Harris En= -330.305509172671    
 JPrj=0 DoOrth=F DoCkMO=F.
 Initial guess <Sx>= 0.0000 <Sy>= 0.0000 <Sz>= 0.5000 <S**2>= 0.7500 S= 0.5000
 Leave Link  401 at Fri Sep 19 15:30:10 2025, MaxMem=   268435456 cpu:               7.4 elap:               1.9
 (Enter /apps/eb/gaussian/16-AVX2/g16/l502.exe)
 Integral symmetry usage will be decided dynamically.
 UHF open shell SCF:
 Using DIIS extrapolation, IDIIS=  1040.
 NGot=   268435456 LenX=   268393178 LenY=   268373137
 Requested convergence on RMS density matrix=1.00D-08 within  32 cycles.
 Requested convergence on MAX density matrix=1.00D-06.
 Requested convergence on             energy=1.00D-06.
 No special actions if energy rises.
 Fock matrices will be formed incrementally for  20 cycles.
 Integral accuracy reduced to 1.0D-05 until final iterations.

 Cycle   1  Pass 0  IDiag  1:
 FoFJK:  IHMeth= 1 ICntrl=       0 DoSepK=T KAlg= 0 I1Cent=           0 FoldK=F
 IRaf=         1 NMat=       1 IRICut=       1 DoRegI=T DoRafI=F ISym2E= 0 IDoP0=0 IntGTp=1.
 FoFCou: FMM=F IPFlag=           0 FMFlag=      100000 FMFlg1=           0
         NFxFlg=           0 DoJE=T BraDBF=F KetDBF=F FulRan=T
         wScrn=  0.000000 ICntrl=       500 IOpCl=  0 I1Cent=           0 NGrid=           0
         NMat0=    1 NMatS0=      1 NMatT0=    0 NMatD0=    1 NMtDS0=    0 NMtDT0=    0
 Symmetry not used in FoFCou.
 E= -344.470712020643    
 DIIS: error= 3.02D-02 at cycle   1 NSaved=   1.
 NSaved= 1 IEnMin= 1 EnMin= -344.470712020643     IErMin= 1 ErrMin= 3.02D-02
 ErrMax= 3.02D-02  0.00D+00 EMaxC= 1.00D-01 BMatC= 9.07D-01 BMatP= 9.07D-01
 IDIUse=3 WtCom= 6.98D-01 WtEn= 3.02D-01
 Coeff-Com:  0.100D+01
 Coeff-En:   0.100D+01
 Coeff:      0.100D+01
 Gap=     0.318 Goal=   None    Shift=    0.000
 Gap=     0.521 Goal=   None    Shift=    0.000
 GapD=    0.318 DampG=1.000 DampE=0.500 DampFc=0.5000 IDamp=-1.
 Damping current iteration by 5.00D-01
 RMSDP=6.80D-03 MaxDP=1.71D-01              OVMax= 2.08D-01

 Cycle   2  Pass 0  IDiag  1:
 RMSU=  3.32D-03    CP:  9.75D-01
 E= -344.526912197871     Delta-E=       -0.056200177229 Rises=F Damp=T
 DIIS: error= 1.22D-02 at cycle   2 NSaved=   2.
 NSaved= 2 IEnMin= 2 EnMin= -344.526912197871     IErMin= 2 ErrMin= 1.22D-02
 ErrMax= 1.22D-02  0.00D+00 EMaxC= 1.00D-01 BMatC= 1.16D-01 BMatP= 9.07D-01
 IDIUse=3 WtCom= 8.78D-01 WtEn= 1.22D-01
 Coeff-Com: -0.161D+00 0.116D+01
 Coeff-En:   0.000D+00 0.100D+01
 Coeff:     -0.141D+00 0.114D+01
 Gap=     0.356 Goal=   None    Shift=    0.000
 Gap=     0.457 Goal=   None    Shift=    0.000
 RMSDP=1.98D-03 MaxDP=5.54D-02 DE=-5.62D-02 OVMax= 1.42D-01

 Cycle   3  Pass 0  IDiag  1:
 RMSU=  1.88D-03    CP:  9.68D-01  1.18D+00
 E= -344.586810204862     Delta-E=       -0.059898006991 Rises=F Damp=F
 DIIS: error= 4.20D-03 at cycle   3 NSaved=   3.
 NSaved= 3 IEnMin= 3 EnMin= -344.586810204862     IErMin= 3 ErrMin= 4.20D-03
 ErrMax= 4.20D-03  0.00D+00 EMaxC= 1.00D-01 BMatC= 2.75D-02 BMatP= 1.16D-01
 IDIUse=3 WtCom= 9.58D-01 WtEn= 4.20D-02
 Coeff-Com: -0.170D+00 0.374D+00 0.796D+00
 Coeff-En:   0.000D+00 0.000D+00 0.100D+01
 Coeff:     -0.163D+00 0.358D+00 0.805D+00
 Gap=     0.307 Goal=   None    Shift=    0.000
 Gap=     0.368 Goal=   None    Shift=    0.000
 RMSDP=8.98D-04 MaxDP=2.36D-02 DE=-5.99D-02 OVMax= 2.09D-02

 Cycle   4  Pass 0  IDiag  1:
 RMSU=  5.21D-04    CP:  9.61D-01  1.39D+00  9.71D-01
 E= -344.592442144891     Delta-E=       -0.005631940029 Rises=F Damp=F
 DIIS: error= 1.88D-03 at cycle   4 NSaved=   4.
 NSaved= 4 IEnMin= 4 EnMin= -344.592442144891     IErMin= 4 ErrMin= 1.88D-03
 ErrMax= 1.88D-03  0.00D+00 EMaxC= 1.00D-01 BMatC= 3.64D-03 BMatP= 2.75D-02
 IDIUse=3 WtCom= 9.81D-01 WtEn= 1.88D-02
 Coeff-Com: -0.806D-01 0.154D+00 0.418D+00 0.509D+00
 Coeff-En:   0.000D+00 0.000D+00 0.000D+00 0.100D+01
 Coeff:     -0.791D-01 0.151D+00 0.410D+00 0.518D+00
 Gap=     0.306 Goal=   None    Shift=    0.000
 Gap=     0.342 Goal=   None    Shift=    0.000
 RMSDP=2.00D-04 MaxDP=6.38D-03 DE=-5.63D-03 OVMax= 6.64D-03

 Cycle   5  Pass 0  IDiag  1:
 RMSU=  1.80D-04    CP:  9.60D-01  1.39D+00  1.01D+00  9.46D-01
 E= -344.593277334795     Delta-E=       -0.000835189904 Rises=F Damp=F
 DIIS: error= 7.64D-04 at cycle   5 NSaved=   5.
 NSaved= 5 IEnMin= 5 EnMin= -344.593277334795     IErMin= 5 ErrMin= 7.64D-04
 ErrMax= 7.64D-04  0.00D+00 EMaxC= 1.00D-01 BMatC= 3.06D-04 BMatP= 3.64D-03
 IDIUse=3 WtCom= 9.92D-01 WtEn= 7.64D-03
 Coeff-Com:  0.160D-01-0.386D-01-0.755D-01 0.888D-01 0.101D+01
 Coeff-En:   0.000D+00 0.000D+00 0.000D+00 0.000D+00 0.100D+01
 Coeff:      0.159D-01-0.383D-01-0.750D-01 0.881D-01 0.101D+01
 Gap=     0.311 Goal=   None    Shift=    0.000
 Gap=     0.345 Goal=   None    Shift=    0.000
 RMSDP=1.94D-04 MaxDP=5.13D-03 DE=-8.35D-04 OVMax= 1.06D-02

 Cycle   6  Pass 0  IDiag  1:
 RMSU=  1.13D-04    CP:  9.60D-01  1.40D+00  1.06D+00  1.14D+00  1.39D+00
 E= -344.593579945030     Delta-E=       -0.000302610235 Rises=F Damp=F
 DIIS: error= 4.26D-04 at cycle   6 NSaved=   6.
 NSaved= 6 IEnMin= 6 EnMin= -344.593579945030     IErMin= 6 ErrMin= 4.26D-04
 ErrMax= 4.26D-04  0.00D+00 EMaxC= 1.00D-01 BMatC= 9.23D-05 BMatP= 3.06D-04
 IDIUse=3 WtCom= 9.96D-01 WtEn= 4.26D-03
 Coeff-Com:  0.307D-01-0.597D-01-0.159D+00-0.163D+00 0.195D+00 0.116D+01
 Coeff-En:   0.000D+00 0.000D+00 0.000D+00 0.000D+00 0.000D+00 0.100D+01
 Coeff:      0.306D-01-0.594D-01-0.159D+00-0.162D+00 0.194D+00 0.116D+01
 Gap=     0.313 Goal=   None    Shift=    0.000
 Gap=     0.347 Goal=   None    Shift=    0.000
 RMSDP=1.55D-04 MaxDP=4.95D-03 DE=-3.03D-04 OVMax= 1.02D-02

 Cycle   7  Pass 0  IDiag  1:
 RMSU=  5.83D-05    CP:  9.59D-01  1.41D+00  1.09D+00  1.30D+00  1.86D+00
                    CP:  1.47D+00
 E= -344.593704850222     Delta-E=       -0.000124905193 Rises=F Damp=F
 DIIS: error= 1.41D-04 at cycle   7 NSaved=   7.
 NSaved= 7 IEnMin= 7 EnMin= -344.593704850222     IErMin= 7 ErrMin= 1.41D-04
 ErrMax= 1.41D-04  0.00D+00 EMaxC= 1.00D-01 BMatC= 1.72D-05 BMatP= 9.23D-05
 IDIUse=3 WtCom= 9.99D-01 WtEn= 1.41D-03
 Coeff-Com:  0.507D-02-0.853D-02-0.265D-01-0.519D-01-0.135D+00 0.349D+00
 Coeff-Com:  0.868D+00
 Coeff-En:   0.000D+00 0.000D+00 0.000D+00 0.000D+00 0.000D+00 0.000D+00
 Coeff-En:   0.100D+01
 Coeff:      0.507D-02-0.852D-02-0.264D-01-0.518D-01-0.135D+00 0.348D+00
 Coeff:      0.868D+00
 Gap=     0.314 Goal=   None    Shift=    0.000
 Gap=     0.348 Goal=   None    Shift=    0.000
 RMSDP=4.41D-05 MaxDP=1.56D-03 DE=-1.25D-04 OVMax= 3.41D-03

 Cycle   8  Pass 0  IDiag  1:
 RMSU=  2.25D-05    CP:  9.59D-01  1.40D+00  1.09D+00  1.32D+00  1.97D+00
                    CP:  1.71D+00  1.20D+00
 E= -344.593720349895     Delta-E=       -0.000015499672 Rises=F Damp=F
 DIIS: error= 6.02D-05 at cycle   8 NSaved=   8.
 NSaved= 8 IEnMin= 8 EnMin= -344.593720349895     IErMin= 8 ErrMin= 6.02D-05
 ErrMax= 6.02D-05  0.00D+00 EMaxC= 1.00D-01 BMatC= 2.95D-06 BMatP= 1.72D-05
 IDIUse=1 WtCom= 1.00D+00 WtEn= 0.00D+00
 Coeff-Com: -0.498D-02 0.987D-02 0.263D-01 0.240D-01-0.646D-01-0.172D+00
 Coeff-Com:  0.109D+00 0.107D+01
 Coeff:     -0.498D-02 0.987D-02 0.263D-01 0.240D-01-0.646D-01-0.172D+00
 Coeff:      0.109D+00 0.107D+01
 Gap=     0.314 Goal=   None    Shift=    0.000
 Gap=     0.348 Goal=   None    Shift=    0.000
 RMSDP=2.48D-05 MaxDP=1.03D-03 DE=-1.55D-05 OVMax= 1.95D-03

 Cycle   9  Pass 0  IDiag  1:
 RMSU=  1.17D-05    CP:  9.59D-01  1.40D+00  1.09D+00  1.32D+00  1.99D+00
                    CP:  1.79D+00  1.47D+00  1.40D+00
 E= -344.593724201458     Delta-E=       -0.000003851563 Rises=F Damp=F
 DIIS: error= 3.02D-05 at cycle   9 NSaved=   9.
 NSaved= 9 IEnMin= 9 EnMin= -344.593724201458     IErMin= 9 ErrMin= 3.02D-05
 ErrMax= 3.02D-05  0.00D+00 EMaxC= 1.00D-01 BMatC= 7.36D-07 BMatP= 2.95D-06
 IDIUse=1 WtCom= 1.00D+00 WtEn= 0.00D+00
 Coeff-Com: -0.185D-02 0.349D-02 0.988D-02 0.134D-01 0.551D-02-0.935D-01
 Coeff-Com: -0.118D+00 0.315D+00 0.865D+00
 Coeff:     -0.185D-02 0.349D-02 0.988D-02 0.134D-01 0.551D-02-0.935D-01
 Coeff:     -0.118D+00 0.315D+00 0.865D+00
 Gap=     0.314 Goal=   None    Shift=    0.000
 Gap=     0.348 Goal=   None    Shift=    0.000
 RMSDP=9.97D-06 MaxDP=2.82D-04 DE=-3.85D-06 OVMax= 7.99D-04

 Initial convergence to 1.0D-05 achieved.  Increase integral accuracy.
 Cycle  10  Pass 1  IDiag  1:
 E= -344.593719406472     Delta-E=        0.000004794986 Rises=F Damp=F
 DIIS: error= 1.94D-05 at cycle   1 NSaved=   1.
 NSaved= 1 IEnMin= 1 EnMin= -344.593719406472     IErMin= 1 ErrMin= 1.94D-05
 ErrMax= 1.94D-05  0.00D+00 EMaxC= 1.00D-01 BMatC= 4.81D-07 BMatP= 4.81D-07
 IDIUse=1 WtCom= 1.00D+00 WtEn= 0.00D+00
 Coeff-Com:  0.100D+01
 Coeff:      0.100D+01
 Gap=     0.314 Goal=   None    Shift=    0.000
 Gap=     0.348 Goal=   None    Shift=    0.000
 RMSDP=9.97D-06 MaxDP=2.82D-04 DE= 4.79D-06 OVMax= 4.11D-04

 Cycle  11  Pass 1  IDiag  1:
 RMSU=  7.07D-06    CP:  1.00D+00
 E= -344.593719709832     Delta-E=       -0.000000303360 Rises=F Damp=F
 DIIS: error= 1.34D-05 at cycle   2 NSaved=   2.
 NSaved= 2 IEnMin= 2 EnMin= -344.593719709832     IErMin= 2 ErrMin= 1.34D-05
 ErrMax= 1.34D-05  0.00D+00 EMaxC= 1.00D-01 BMatC= 1.01D-07 BMatP= 4.81D-07
 IDIUse=1 WtCom= 1.00D+00 WtEn= 0.00D+00
 Coeff-Com:  0.242D-01 0.976D+00
 Coeff:      0.242D-01 0.976D+00
 Gap=     0.314 Goal=   None    Shift=    0.000
 Gap=     0.348 Goal=   None    Shift=    0.000
 RMSDP=3.41D-06 MaxDP=1.05D-04 DE=-3.03D-07 OVMax= 2.87D-04

 Cycle  12  Pass 1  IDiag  1:
 RMSU=  2.30D-06    CP:  1.00D+00  1.36D+00
 E= -344.593719823922     Delta-E=       -0.000000114090 Rises=F Damp=F
 DIIS: error= 9.52D-06 at cycle   3 NSaved=   3.
 NSaved= 3 IEnMin= 3 EnMin= -344.593719823922     IErMin= 3 ErrMin= 9.52D-06
 ErrMax= 9.52D-06  0.00D+00 EMaxC= 1.00D-01 BMatC= 5.97D-08 BMatP= 1.01D-07
 IDIUse=1 WtCom= 1.00D+00 WtEn= 0.00D+00
 Coeff-Com: -0.160D+00 0.372D+00 0.787D+00
 Coeff:     -0.160D+00 0.372D+00 0.787D+00
 Gap=     0.314 Goal=   None    Shift=    0.000
 Gap=     0.348 Goal=   None    Shift=    0.000
 RMSDP=2.81D-06 MaxDP=1.11D-04 DE=-1.14D-07 OVMax= 2.16D-04

 Cycle  13  Pass 1  IDiag  1:
 RMSU=  1.30D-06    CP:  1.00D+00  1.69D+00  1.29D+00
 E= -344.593719888876     Delta-E=       -0.000000064954 Rises=F Damp=F
 DIIS: error= 6.02D-06 at cycle   4 NSaved=   4.
 NSaved= 4 IEnMin= 4 EnMin= -344.593719888876     IErMin= 4 ErrMin= 6.02D-06
 ErrMax= 6.02D-06  0.00D+00 EMaxC= 1.00D-01 BMatC= 1.97D-08 BMatP= 5.97D-08
 IDIUse=1 WtCom= 1.00D+00 WtEn= 0.00D+00
 Coeff-Com: -0.388D-02-0.439D+00-0.365D-01 0.148D+01
 Coeff:     -0.388D-02-0.439D+00-0.365D-01 0.148D+01
 Gap=     0.314 Goal=   None    Shift=    0.000
 Gap=     0.348 Goal=   None    Shift=    0.000
 RMSDP=3.67D-06 MaxDP=1.21D-04 DE=-6.50D-08 OVMax= 2.82D-04

 Cycle  14  Pass 1  IDiag  1:
 RMSU=  7.72D-07    CP:  1.00D+00  2.11D+00  2.03D+00  1.91D+00
 E= -344.593719938876     Delta-E=       -0.000000050000 Rises=F Damp=F
 DIIS: error= 2.56D-06 at cycle   5 NSaved=   5.
 NSaved= 5 IEnMin= 5 EnMin= -344.593719938876     IErMin= 5 ErrMin= 2.56D-06
 ErrMax= 2.56D-06  0.00D+00 EMaxC= 1.00D-01 BMatC= 9.29D-09 BMatP= 1.97D-08
 IDIUse=1 WtCom= 1.00D+00 WtEn= 0.00D+00
 Coeff-Com:  0.597D-01-0.419D+00-0.318D+00 0.921D+00 0.756D+00
 Coeff:      0.597D-01-0.419D+00-0.318D+00 0.921D+00 0.756D+00
 Gap=     0.314 Goal=   None    Shift=    0.000
 Gap=     0.348 Goal=   None    Shift=    0.000
 RMSDP=1.90D-06 MaxDP=6.29D-05 DE=-5.00D-08 OVMax= 1.47D-04

 Cycle  15  Pass 1  IDiag  1:
 RMSU=  3.68D-07    CP:  1.00D+00  2.31D+00  2.43D+00  2.50D+00  1.20D+00
 E= -344.593719949692     Delta-E=       -0.000000010815 Rises=F Damp=F
 DIIS: error= 8.92D-07 at cycle   6 NSaved=   6.
 NSaved= 6 IEnMin= 6 EnMin= -344.593719949692     IErMin= 6 ErrMin= 8.92D-07
 ErrMax= 8.92D-07  0.00D+00 EMaxC= 1.00D-01 BMatC= 6.78D-10 BMatP= 9.29D-09
 IDIUse=1 WtCom= 1.00D+00 WtEn= 0.00D+00
 Coeff-Com:  0.193D-01-0.741D-01-0.911D-01 0.915D-01 0.218D+00 0.836D+00
 Coeff:      0.193D-01-0.741D-01-0.911D-01 0.915D-01 0.218D+00 0.836D+00
 Gap=     0.314 Goal=   None    Shift=    0.000
 Gap=     0.348 Goal=   None    Shift=    0.000
 RMSDP=4.50D-07 MaxDP=1.66D-05 DE=-1.08D-08 OVMax= 3.72D-05

 Cycle  16  Pass 1  IDiag  1:
 RMSU=  1.67D-07    CP:  1.00D+00  2.34D+00  2.50D+00  2.66D+00  1.39D+00
                    CP:  1.36D+00
 E= -344.593719950490     Delta-E=       -0.000000000798 Rises=F Damp=F
 DIIS: error= 5.00D-07 at cycle   7 NSaved=   7.
 NSaved= 7 IEnMin= 7 EnMin= -344.593719950490     IErMin= 7 ErrMin= 5.00D-07
 ErrMax= 5.00D-07  0.00D+00 EMaxC= 1.00D-01 BMatC= 2.04D-10 BMatP= 6.78D-10
 IDIUse=1 WtCom= 1.00D+00 WtEn= 0.00D+00
 Coeff-Com: -0.920D-02 0.858D-01 0.541D-01-0.215D+00-0.130D+00 0.313D+00
 Coeff-Com:  0.902D+00
 Coeff:     -0.920D-02 0.858D-01 0.541D-01-0.215D+00-0.130D+00 0.313D+00
 Coeff:      0.902D+00
 Gap=     0.314 Goal=   None    Shift=    0.000
 Gap=     0.348 Goal=   None    Shift=    0.000
 RMSDP=2.44D-07 MaxDP=5.54D-06 DE=-7.98D-10 OVMax= 1.70D-05

 Cycle  17  Pass 1  IDiag  1:
 RMSU=  7.17D-08    CP:  1.00D+00  2.36D+00  2.53D+00  2.73D+00  1.56D+00
                    CP:  1.72D+00  1.22D+00
 E= -344.593719950698     Delta-E=       -0.000000000208 Rises=F Damp=F
 DIIS: error= 1.91D-07 at cycle   8 NSaved=   8.
 NSaved= 8 IEnMin= 8 EnMin= -344.593719950698     IErMin= 8 ErrMin= 1.91D-07
 ErrMax= 1.91D-07  0.00D+00 EMaxC= 1.00D-01 BMatC= 2.24D-11 BMatP= 2.04D-10
 IDIUse=1 WtCom= 1.00D+00 WtEn= 0.00D+00
 Coeff-Com: -0.392D-02 0.203D-01 0.200D-01-0.343D-01-0.495D-01-0.119D+00
 Coeff-Com:  0.420D-01 0.112D+01
 Coeff:     -0.392D-02 0.203D-01 0.200D-01-0.343D-01-0.495D-01-0.119D+00
 Coeff:      0.420D-01 0.112D+01
 Gap=     0.314 Goal=   None    Shift=    0.000
 Gap=     0.348 Goal=   None    Shift=    0.000
 RMSDP=1.17D-07 MaxDP=2.62D-06 DE=-2.08D-10 OVMax= 8.20D-06

 Cycle  18  Pass 1  IDiag  1:
 RMSU=  3.41D-08    CP:  1.00D+00  2.36D+00  2.54D+00  2.76D+00  1.63D+00
                    CP:  1.88D+00  1.46D+00  1.59D+00
 E= -344.593719950734     Delta-E=       -0.000000000037 Rises=F Damp=F
 DIIS: error= 7.71D-08 at cycle   9 NSaved=   9.
 NSaved= 9 IEnMin= 9 EnMin= -344.593719950734     IErMin= 9 ErrMin= 7.71D-08
 ErrMax= 7.71D-08  0.00D+00 EMaxC= 1.00D-01 BMatC= 5.43D-12 BMatP= 2.24D-11
 IDIUse=1 WtCom= 1.00D+00 WtEn= 0.00D+00
 Coeff-Com:  0.651D-03-0.898D-02-0.424D-02 0.256D-01 0.988D-02-0.710D-01
 Coeff-Com: -0.128D+00 0.274D+00 0.902D+00
 Coeff:      0.651D-03-0.898D-02-0.424D-02 0.256D-01 0.988D-02-0.710D-01
 Coeff:     -0.128D+00 0.274D+00 0.902D+00
 Gap=     0.314 Goal=   None    Shift=    0.000
 Gap=     0.348 Goal=   None    Shift=    0.000
 RMSDP=3.81D-08 MaxDP=8.58D-07 DE=-3.67D-11 OVMax= 2.50D-06

 Cycle  19  Pass 1  IDiag  1:
 RMSU=  1.45D-08    CP:  1.00D+00  2.36D+00  2.54D+00  2.76D+00  1.65D+00
                    CP:  1.93D+00  1.55D+00  1.87D+00  1.13D+00
 E= -344.593719950739     Delta-E=       -0.000000000005 Rises=F Damp=F
 DIIS: error= 6.03D-08 at cycle  10 NSaved=  10.
 NSaved=10 IEnMin=10 EnMin= -344.593719950739     IErMin=10 ErrMin= 6.03D-08
 ErrMax= 6.03D-08  0.00D+00 EMaxC= 1.00D-01 BMatC= 1.79D-12 BMatP= 5.43D-12
 IDIUse=1 WtCom= 1.00D+00 WtEn= 0.00D+00
 Coeff-Com:  0.129D-02-0.791D-02-0.667D-02 0.161D-01 0.166D-01 0.144D-01
 Coeff-Com: -0.490D-01-0.248D+00 0.243D+00 0.102D+01
 Coeff:      0.129D-02-0.791D-02-0.667D-02 0.161D-01 0.166D-01 0.144D-01
 Coeff:     -0.490D-01-0.248D+00 0.243D+00 0.102D+01
 Gap=     0.314 Goal=   None    Shift=    0.000
 Gap=     0.348 Goal=   None    Shift=    0.000
 RMSDP=2.23D-08 MaxDP=5.82D-07 DE=-5.23D-12 OVMax= 1.18D-06

 Cycle  20  Pass 1  IDiag  1:
 RMSU=  7.09D-09    CP:  1.00D+00  2.36D+00  2.54D+00  2.76D+00  1.66D+00
                    CP:  1.95D+00  1.59D+00  2.05D+00  1.42D+00  1.43D+00
 E= -344.593719950742     Delta-E=       -0.000000000002 Rises=F Damp=F
 DIIS: error= 2.14D-08 at cycle  11 NSaved=  11.
 NSaved=11 IEnMin=11 EnMin= -344.593719950742     IErMin=11 ErrMin= 2.14D-08
 ErrMax= 2.14D-08  0.00D+00 EMaxC= 1.00D-01 BMatC= 3.50D-13 BMatP= 1.79D-12
 IDIUse=1 WtCom= 1.00D+00 WtEn= 0.00D+00
 Coeff-Com: -0.222D-03 0.290D-02 0.146D-02-0.811D-02-0.371D-02 0.204D-01
 Coeff-Com:  0.410D-01-0.591D-01-0.258D+00-0.642D-01 0.133D+01
 Coeff:     -0.222D-03 0.290D-02 0.146D-02-0.811D-02-0.371D-02 0.204D-01
 Coeff:      0.410D-01-0.591D-01-0.258D+00-0.642D-01 0.133D+01
 Gap=     0.314 Goal=   None    Shift=    0.000
 Gap=     0.348 Goal=   None    Shift=    0.000
 RMSDP=1.11D-08 MaxDP=3.96D-07 DE=-2.05D-12 OVMax= 4.23D-07

 Cycle  21  Pass 1  IDiag  1:
 RMSU=  3.71D-09    CP:  1.00D+00  2.36D+00  2.54D+00  2.76D+00  1.66D+00
                    CP:  1.96D+00  1.60D+00  2.12D+00  1.55D+00  1.86D+00
                    CP:  1.54D+00
 E= -344.593719950742     Delta-E=       -0.000000000001 Rises=F Damp=F
 DIIS: error= 6.36D-09 at cycle  12 NSaved=  12.
 NSaved=12 IEnMin=12 EnMin= -344.593719950742     IErMin=12 ErrMin= 6.36D-09
 ErrMax= 6.36D-09  0.00D+00 EMaxC= 1.00D-01 BMatC= 6.46D-14 BMatP= 3.50D-13
 IDIUse=1 WtCom= 1.00D+00 WtEn= 0.00D+00
 Coeff-Com: -0.320D-03 0.244D-02 0.179D-02-0.552D-02-0.441D-02 0.191D-02
 Coeff-Com:  0.208D-01 0.388D-01-0.118D+00-0.229D+00 0.332D+00 0.960D+00
 Coeff:     -0.320D-03 0.244D-02 0.179D-02-0.552D-02-0.441D-02 0.191D-02
 Coeff:      0.208D-01 0.388D-01-0.118D+00-0.229D+00 0.332D+00 0.960D+00
 Gap=     0.314 Goal=   None    Shift=    0.000
 Gap=     0.348 Goal=   None    Shift=    0.000
 RMSDP=3.72D-09 MaxDP=1.44D-07 DE=-5.68D-13 OVMax= 1.34D-07

 SCF Done:  E(UwB97XD) =  -344.593719951     A.U. after   21 cycles
            NFock= 21  Conv=0.37D-08     -V/T= 2.0085
 <Sx>= 0.0000 <Sy>= 0.0000 <Sz>= 0.5000 <S**2>= 0.7823 S= 0.5160
 <L.S>=  0.00000000000    
 KE= 3.416775438502D+02 PE=-1.404327147615D+03 EE= 4.181321107079D+02
 Annihilation of the first spin contaminant:
 S**2 before annihilation     0.7823,   after     0.7503
 Leave Link  502 at Fri Sep 19 15:31:20 2025, MaxMem=   268435456 cpu:             276.2 elap:              69.4
 (Enter /apps/eb/gaussian/16-AVX2/g16/l508.exe)
 QCSCF skips out because SCF is already converged.
 Leave Link  508 at Fri Sep 19 15:31:20 2025, MaxMem=   268435456 cpu:               0.3 elap:               0.1
 (Enter /apps/eb/gaussian/16-AVX2/g16/l801.exe)
 DoSCS=F DFT=T ScalE2(SS,OS)=  1.000000  1.000000
 Range of M.O.s used for correlation:     1   133
 NBasis=   133 NAE=    27 NBE=    26 NFC=     0 NFV=     0
 NROrb=    133 NOA=    27 NOB=    26 NVA=   106 NVB=   107
 Leave Link  801 at Fri Sep 19 15:31:20 2025, MaxMem=   268435456 cpu:               0.4 elap:               0.1
 (Enter /apps/eb/gaussian/16-AVX2/g16/l1101.exe)
 Using compressed storage, NAtomX=    14.
 Will process     15 centers per pass.
   1 Symmetry operations used in ECPInt.
 ECPInt:  NShTT=    2016 NPrTT=    7252 LenC2=    2009 LenP2D=    6007.
 LDataN:  DoStor=T MaxTD1= 5 Len=  102
 R6Disp: Adding Grimme-D2 dispersion energy 1st derivatives to the gradient.
 Leave Link 1101 at Fri Sep 19 15:31:22 2025, MaxMem=   268435456 cpu:              10.1 elap:               2.6
 (Enter /apps/eb/gaussian/16-AVX2/g16/l1102.exe)
 Symmetrizing basis deriv contribution to polar:
 IMax=3 JMax=2 DiffMx= 0.00D+00
 Leave Link 1102 at Fri Sep 19 15:31:23 2025, MaxMem=   268435456 cpu:               0.6 elap:               0.2
 (Enter /apps/eb/gaussian/16-AVX2/g16/l1110.exe)
 Forming Gx(P) for the SCF density, NAtomX=    14.
 Integral derivatives from FoFJK, PRISM(SPDF).
 Do as many integral derivatives as possible in FoFJK.
 G2DrvN: MDV=     268433878.
 G2DrvN: will do    15 centers at a time, making    1 passes.
 Calling FoFCou, ICntrl=  3107 FMM=F I1Cent=   0 AccDes= 0.00D+00.
 FoFJK:  IHMeth= 1 ICntrl=    3107 DoSepK=T KAlg= 0 I1Cent=           0 FoldK=F
 IRaf=         1 NMat=       1 IRICut=       1 DoRegI=T DoRafI=F ISym2E= 0 IDoP0=0 IntGTp=1.
 FoFCou: FMM=F IPFlag=           0 FMFlag=      100000 FMFlg1=           0
         NFxFlg=           0 DoJE=F BraDBF=F KetDBF=F FulRan=T
         wScrn=  0.000000 ICntrl=      3507 IOpCl=  0 I1Cent=           0 NGrid=           0
         NMat0=    1 NMatS0=      1 NMatT0=    0 NMatD0=    1 NMtDS0=    0 NMtDT0=    0
 Symmetry not used in FoFCou.
 End of G2Drv F.D. properties file   721 does not exist.
 End of G2Drv F.D. properties file   722 does not exist.
 End of G2Drv F.D. properties file   788 does not exist.
 Leave Link 1110 at Fri Sep 19 15:31:57 2025, MaxMem=   268435456 cpu:             137.7 elap:              34.6
 (Enter /apps/eb/gaussian/16-AVX2/g16/l1002.exe)
 Minotr:  UHF open shell wavefunction.
          IDoAtm=11111111111111
          Direct CPHF calculation.
          Differentiating once with respect to nuclear coordinates.
          Requested convergence is 1.0D-08 RMS, and 1.0D-07 maximum.
          Secondary convergence is 1.0D-12 RMS, and 1.0D-12 maximum.
          NewPWx=T KeepS1=F KeepF1=F KeepIn=T MapXYZ=F SortEE=F KeepMc=T.
         4152 words used for storage of precomputed grid.
 Keep R1 and R2 ints in memory in canonical form, NReq=167766561.
 FoFCou: FMM=F IPFlag=           0 FMFlag=           0 FMFlg1=           0
         NFxFlg=           0 DoJE=F BraDBF=F KetDBF=F FulRan=T
         wScrn=  0.000000 ICntrl=       600 IOpCl=  0 I1Cent=           0 NGrid=           0
         NMat0=    1 NMatS0=   8911 NMatT0=    0 NMatD0=    1 NMtDS0=    0 NMtDT0=    0
 Symmetry not used in FoFCou.
 Two-electron integral symmetry not used.
          MDV=     268435456 using IRadAn=       1.
          Solving linear equations simultaneously, MaxMat=       0.
          There are    45 degrees of freedom in the 1st order CPHF.  IDoFFX=6 NUNeed=     0.
     39 vectors produced by pass  0 Test12= 1.25D-14 2.22D-09 XBig12= 2.19D-01 1.17D-01.
 AX will form    39 AO Fock derivatives at one time.
     39 vectors produced by pass  1 Test12= 1.25D-14 2.22D-09 XBig12= 4.64D-02 3.62D-02.
     39 vectors produced by pass  2 Test12= 1.25D-14 2.22D-09 XBig12= 2.63D-03 7.47D-03.
     39 vectors produced by pass  3 Test12= 1.25D-14 2.22D-09 XBig12= 3.78D-05 8.97D-04.
     39 vectors produced by pass  4 Test12= 1.25D-14 2.22D-09 XBig12= 4.80D-07 9.45D-05.
     39 vectors produced by pass  5 Test12= 1.25D-14 2.22D-09 XBig12= 6.93D-09 1.05D-05.
     39 vectors produced by pass  6 Test12= 1.25D-14 2.22D-09 XBig12= 6.06D-11 1.00D-06.
     25 vectors produced by pass  7 Test12= 1.25D-14 2.22D-09 XBig12= 4.60D-13 7.28D-08.
      5 vectors produced by pass  8 Test12= 1.25D-14 2.22D-09 XBig12= 3.24D-15 5.61D-09.
 InvSVY:  IOpt=1 It=  1 EMax= 2.00D-15
 Solved reduced A of dimension   303 with    39 vectors.
 End of Minotr F.D. properties file   721 does not exist.
 End of Minotr F.D. properties file   722 does not exist.
 End of Minotr F.D. properties file   788 does not exist.
 Leave Link 1002 at Fri Sep 19 15:32:58 2025, MaxMem=   268435456 cpu:             241.0 elap:              60.5
 (Enter /apps/eb/gaussian/16-AVX2/g16/l601.exe)
 Copying SCF densities to generalized density rwf, IOpCl= 1 IROHF=0.

 **********************************************************************

            Population analysis using the SCF Density.

 **********************************************************************

 Orbital symmetries:
 Alpha Orbitals:
       Occupied  (A) (A) (A) (A) (A) (A) (A) (A) (A) (A) (A) (A)
                 (A) (A) (A) (A) (A) (A) (A) (A) (A) (A) (A) (A)
                 (A) (A) (A)
       Virtual   (A) (A) (A) (A) (A) (A) (A) (A) (A) (A) (A) (A)
                 (A) (A) (A) (A) (A) (A) (A) (A) (A) (A) (A) (A)
                 (A) (A) (A) (A) (A) (A) (A) (A) (A) (A) (A) (A)
                 (A) (A) (A) (A) (A) (A) (A) (A) (A) (A) (A) (A)
                 (A) (A) (A) (A) (A) (A) (A) (A) (A) (A) (A) (A)
                 (A) (A) (A) (A) (A) (A) (A) (A) (A) (A) (A) (A)
                 (A) (A) (A) (A) (A) (A) (A) (A) (A) (A) (A) (A)
                 (A) (A) (A) (A) (A) (A) (A) (A) (A) (A) (A) (A)
                 (A) (A) (A) (A) (A) (A) (A) (A) (A) (A)
 Beta  Orbitals:
       Occupied  (A) (A) (A) (A) (A) (A) (A) (A) (A) (A) (A) (A)
                 (A) (A) (A) (A) (A) (A) (A) (A) (A) (A) (A) (A)
                 (A) (A)
       Virtual   (A) (A) (A) (A) (A) (A) (A) (A) (A) (A) (A) (A)
                 (A) (A) (A) (A) (A) (A) (A) (A) (A) (A) (A) (A)
                 (A) (A) (A) (A) (A) (A) (A) (A) (A) (A) (A) (A)
                 (A) (A) (A) (A) (A) (A) (A) (A) (A) (A) (A) (A)
                 (A) (A) (A) (A) (A) (A) (A) (A) (A) (A) (A) (A)
                 (A) (A) (A) (A) (A) (A) (A) (A) (A) (A) (A) (A)
                 (A) (A) (A) (A) (A) (A) (A) (A) (A) (A) (A) (A)
                 (A) (A) (A) (A) (A) (A) (A) (A) (A) (A) (A) (A)
                 (A) (A) (A) (A) (A) (A) (A) (A) (A) (A) (A)
 The electronic state is 2-A.
 Alpha  occ. eigenvalues --  -19.31955 -19.30402 -10.35862 -10.32098 -10.30605
 Alpha  occ. eigenvalues --  -10.30281 -10.30088  -1.22184  -1.02777  -0.96280
 Alpha  occ. eigenvalues --   -0.83451  -0.79861  -0.67782  -0.64514  -0.63035
 Alpha  occ. eigenvalues --   -0.59224  -0.57660  -0.53716  -0.50179  -0.49274
 Alpha  occ. eigenvalues --   -0.47947  -0.45802  -0.43132  -0.38662  -0.36655
 Alpha  occ. eigenvalues --   -0.35894  -0.22890
 Alpha virt. eigenvalues --    0.08490   0.11974   0.14894   0.16156   0.16819
 Alpha virt. eigenvalues --    0.18896   0.20590   0.21424   0.23215   0.26009
 Alpha virt. eigenvalues --    0.30039   0.31651   0.37783   0.41405   0.46827
 Alpha virt. eigenvalues --    0.48095   0.49627   0.54155   0.54675   0.57837
 Alpha virt. eigenvalues --    0.58370   0.60643   0.63394   0.66890   0.68688
 Alpha virt. eigenvalues --    0.68805   0.69935   0.71285   0.71631   0.74782
 Alpha virt. eigenvalues --    0.76346   0.77392   0.77996   0.79270   0.81989
 Alpha virt. eigenvalues --    0.82878   0.85561   0.90062   0.95238   1.01692
 Alpha virt. eigenvalues --    1.03549   1.06226   1.12003   1.13761   1.15949
 Alpha virt. eigenvalues --    1.17503   1.26563   1.28144   1.32818   1.34595
 Alpha virt. eigenvalues --    1.39208   1.43927   1.50755   1.53997   1.61072
 Alpha virt. eigenvalues --    1.62541   1.64852   1.67526   1.73247   1.76662
 Alpha virt. eigenvalues --    1.76777   1.80513   1.83786   1.85954   1.87749
 Alpha virt. eigenvalues --    1.89909   1.90887   1.93116   1.97443   1.99575
 Alpha virt. eigenvalues --    2.04839   2.08671   2.10883   2.15608   2.17232
 Alpha virt. eigenvalues --    2.19048   2.21944   2.26332   2.28391   2.29786
 Alpha virt. eigenvalues --    2.41051   2.43013   2.51141   2.54655   2.55360
 Alpha virt. eigenvalues --    2.56920   2.59207   2.60199   2.66908   2.67599
 Alpha virt. eigenvalues --    2.75522   2.77076   2.81414   2.87478   2.92578
 Alpha virt. eigenvalues --    3.02252   3.03611   3.06048   3.12244   3.19413
 Alpha virt. eigenvalues --    3.26887   3.28379   3.44721   3.53107   3.66625
 Alpha virt. eigenvalues --    3.93352
  Beta  occ. eigenvalues --  -19.31946 -19.30255 -10.35598 -10.31426 -10.30651
  Beta  occ. eigenvalues --  -10.30554 -10.29488  -1.21912  -1.02198  -0.95512
  Beta  occ. eigenvalues --   -0.82049  -0.79614  -0.66474  -0.64027  -0.62289
  Beta  occ. eigenvalues --   -0.58656  -0.56945  -0.53320  -0.49455  -0.48695
  Beta  occ. eigenvalues --   -0.47421  -0.45376  -0.41274  -0.38488  -0.36375
  Beta  occ. eigenvalues --   -0.33740
  Beta virt. eigenvalues --    0.01090   0.09783   0.13153   0.15526   0.16433
  Beta virt. eigenvalues --    0.17410   0.19223   0.20883   0.21720   0.23534
  Beta virt. eigenvalues --    0.26446   0.30517   0.32369   0.38307   0.41894
  Beta virt. eigenvalues --    0.47253   0.48455   0.50186   0.54790   0.55211
  Beta virt. eigenvalues --    0.58121   0.59216   0.62365   0.63815   0.67416
  Beta virt. eigenvalues --    0.69369   0.69938   0.70429   0.71687   0.72512
  Beta virt. eigenvalues --    0.75289   0.76568   0.77677   0.78318   0.79718
  Beta virt. eigenvalues --    0.82390   0.83364   0.86158   0.90393   0.95496
  Beta virt. eigenvalues --    1.01923   1.03913   1.06473   1.12247   1.14024
  Beta virt. eigenvalues --    1.16158   1.17699   1.27270   1.28279   1.33810
  Beta virt. eigenvalues --    1.35051   1.39388   1.44298   1.51143   1.54239
  Beta virt. eigenvalues --    1.61455   1.63470   1.65109   1.67969   1.73559
  Beta virt. eigenvalues --    1.77077   1.77339   1.80959   1.84166   1.87169
  Beta virt. eigenvalues --    1.88105   1.90466   1.91738   1.93759   1.98321
  Beta virt. eigenvalues --    2.00182   2.05454   2.09115   2.11301   2.15874
  Beta virt. eigenvalues --    2.17820   2.19342   2.22939   2.27150   2.28610
  Beta virt. eigenvalues --    2.30858   2.42411   2.43872   2.51830   2.55321
  Beta virt. eigenvalues --    2.55876   2.57267   2.60013   2.61020   2.67609
  Beta virt. eigenvalues --    2.68095   2.76034   2.77612   2.82243   2.88242
  Beta virt. eigenvalues --    2.93031   3.02445   3.03885   3.06408   3.12633
  Beta virt. eigenvalues --    3.19725   3.27179   3.28713   3.44967   3.53459
  Beta virt. eigenvalues --    3.66704   3.93582
          Condensed to atoms (all electrons):
               1          2          3          4          5          6
     1  C    5.110147  -0.018589   0.322307   0.013607  -0.047031   0.326605
     2  C   -0.018589   5.668067  -0.035295   0.283288   0.424679  -0.067404
     3  O    0.322307  -0.035295   7.903761   0.003859   0.001633  -0.016379
     4  C    0.013607   0.283288   0.003859   4.897602  -0.038116   0.020078
     5  H   -0.047031   0.424679   0.001633  -0.038116   0.609525  -0.005795
     6  H    0.326605  -0.067404  -0.016379   0.020078  -0.005795   0.696265
     7  C   -0.058192   0.015926   0.004062   0.460638   0.006413  -0.012304
     8  H    0.005769  -0.053975  -0.000069   0.440200  -0.005138  -0.001250
     9  C    0.367022  -0.150881  -0.042681  -0.030597   0.010458  -0.013577
    10  H    0.005390   0.009544  -0.000069  -0.044031  -0.000203  -0.000486
    11  H   -0.007682  -0.006074  -0.005621   0.003476  -0.000235   0.006799
    12  H   -0.023010   0.015086   0.002757  -0.000625  -0.000248  -0.010087
    13  O   -0.064089   0.001574   0.096855  -0.000413   0.000214   0.007727
    14  H   -0.003843   0.008543  -0.017970  -0.000763   0.000166  -0.001255
               7          8          9         10         11         12
     1  C   -0.058192   0.005769   0.367022   0.005390  -0.007682  -0.023010
     2  C    0.015926  -0.053975  -0.150881   0.009544  -0.006074   0.015086
     3  O    0.004062  -0.000069  -0.042681  -0.000069  -0.005621   0.002757
     4  C    0.460638   0.440200  -0.030597  -0.044031   0.003476  -0.000625
     5  H    0.006413  -0.005138   0.010458  -0.000203  -0.000235  -0.000248
     6  H   -0.012304  -0.001250  -0.013577  -0.000486   0.006799  -0.010087
     7  C    5.126593  -0.056417   0.283612   0.420919  -0.019139  -0.019308
     8  H   -0.056417   0.642850   0.010422  -0.006491  -0.000298  -0.000184
     9  C    0.283612   0.010422   4.796278  -0.040264   0.351504   0.373604
    10  H    0.420919  -0.006491  -0.040264   0.628324  -0.000795  -0.001701
    11  H   -0.019139  -0.000298   0.351504  -0.000795   0.630282  -0.027429
    12  H   -0.019308  -0.000184   0.373604  -0.001701  -0.027429   0.635119
    13  O   -0.000401  -0.000019  -0.002723  -0.000008   0.009520  -0.000290
    14  H    0.000255   0.000006  -0.001063   0.000002  -0.000415   0.000021
              13         14
     1  C   -0.064089  -0.003843
     2  C    0.001574   0.008543
     3  O    0.096855  -0.017970
     4  C   -0.000413  -0.000763
     5  H    0.000214   0.000166
     6  H    0.007727  -0.001255
     7  C   -0.000401   0.000255
     8  H   -0.000019   0.000006
     9  C   -0.002723  -0.001063
    10  H   -0.000008   0.000002
    11  H    0.009520  -0.000415
    12  H   -0.000290   0.000021
    13  O    7.818579   0.308307
    14  H    0.308307   0.512764
          Atomic-Atomic Spin Densities.
               1          2          3          4          5          6
     1  C    0.359017  -0.264258  -0.013628   0.022799  -0.001145   0.090301
     2  C   -0.264258   0.932944   0.010248  -0.026844   0.005332  -0.075287
     3  O   -0.013628   0.010248   0.016946  -0.001034   0.000211  -0.007710
     4  C    0.022799  -0.026844  -0.001034  -0.233608  -0.000290   0.006190
     5  H   -0.001145   0.005332   0.000211  -0.000290  -0.031493   0.000955
     6  H    0.090301  -0.075287  -0.007710   0.006190   0.000955  -0.038471
     7  C    0.026163  -0.062712   0.000124  -0.014892  -0.000153   0.009982
     8  H   -0.000497   0.001223   0.000007  -0.001499   0.000191  -0.000110
     9  C   -0.027990   0.033774   0.003222  -0.006339  -0.000339  -0.013582
    10  H   -0.000510   0.000418   0.000008  -0.000820   0.000009  -0.000058
    11  H   -0.000641  -0.003799  -0.002372   0.003561   0.000009   0.002313
    12  H   -0.015295   0.006633   0.000761  -0.001186   0.000007  -0.002292
    13  O   -0.002400   0.000571  -0.024269   0.000269   0.000030   0.001073
    14  H   -0.000318  -0.000311   0.000945  -0.000000  -0.000039   0.000028
               7          8          9         10         11         12
     1  C    0.026163  -0.000497  -0.027990  -0.000510  -0.000641  -0.015295
     2  C   -0.062712   0.001223   0.033774   0.000418  -0.003799   0.006633
     3  O    0.000124   0.000007   0.003222   0.000008  -0.002372   0.000761
     4  C   -0.014892  -0.001499  -0.006339  -0.000820   0.003561  -0.001186
     5  H   -0.000153   0.000191  -0.000339   0.000009   0.000009   0.000007
     6  H    0.009982  -0.000110  -0.013582  -0.000058   0.002313  -0.002292
     7  C    0.642946  -0.000562  -0.037414   0.004509  -0.016862  -0.015584
     8  H   -0.000562   0.009620   0.000257   0.000267  -0.000084   0.000035
     9  C   -0.037414   0.000257  -0.029627   0.000655  -0.005765   0.023462
    10  H    0.004509   0.000267   0.000655  -0.028321  -0.000748   0.000616
    11  H   -0.016862  -0.000084  -0.005765  -0.000748   0.091547  -0.016287
    12  H   -0.015584   0.000035   0.023462   0.000616  -0.016287   0.047790
    13  O   -0.000133  -0.000002  -0.001421  -0.000002   0.001805  -0.000246
    14  H    0.000004   0.000000   0.000082   0.000000  -0.000058   0.000004
              13         14
     1  C   -0.002400  -0.000318
     2  C    0.000571  -0.000311
     3  O   -0.024269   0.000945
     4  C    0.000269  -0.000000
     5  H    0.000030  -0.000039
     6  H    0.001073   0.000028
     7  C   -0.000133   0.000004
     8  H   -0.000002   0.000000
     9  C   -0.001421   0.000082
    10  H   -0.000002   0.000000
    11  H    0.001805  -0.000058
    12  H   -0.000246   0.000004
    13  O    0.080125   0.000066
    14  H    0.000066  -0.002077
 Mulliken charges and spin densities:
               1          2
     1  C    0.071591   0.171597
     2  C   -0.094489   0.557932
     3  O   -0.217149  -0.016541
     4  C   -0.008202  -0.253695
     5  H    0.043677  -0.026715
     6  H    0.071060  -0.026667
     7  C   -0.152657   0.535417
     8  H    0.024594   0.008846
     9  C    0.088886  -0.061026
    10  H    0.029871  -0.023976
    11  H    0.066109   0.052619
    12  H    0.056295   0.028420
    13  O   -0.174832   0.055465
    14  H    0.195246  -0.001675
 Sum of Mulliken charges =  -0.00000   1.00000
 Mulliken charges and spin densities with hydrogens summed into heavy atoms:
               1          2
     1  C    0.142651   0.144930
     2  C   -0.050812   0.531217
     3  O   -0.217149  -0.016541
     4  C    0.016392  -0.244849
     7  C   -0.122786   0.511440
     9  C    0.211290   0.020013
    13  O    0.020414   0.053790
 APT charges:
               1
     1  C   -0.322003
     2  C   -0.489081
     3  O   -0.005372
     4  C   -0.545666
     5  H    0.409355
     6  H    0.225558
     7  C   -0.644815
     8  H    0.572718
     9  C   -0.447461
    10  H    0.584335
    11  H    0.258414
    12  H    0.403243
    13  O   -0.498459
    14  H    0.499234
 Sum of APT charges =  -0.00000
 APT charges with hydrogens summed into heavy atoms:
               1
     1  C   -0.096445
     2  C   -0.079726
     3  O   -0.005372
     4  C    0.027052
     7  C   -0.060480
     9  C    0.214196
    13  O    0.000775
 Electronic spatial extent (au):  <R**2>=            721.4828
 Charge=             -0.0000 electrons
 Dipole moment (field-independent basis, Debye):
    X=             -0.9672    Y=              1.7639    Z=              0.0947  Tot=              2.0139
 Quadrupole moment (field-independent basis, Debye-Ang):
   XX=            -41.8661   YY=            -36.7252   ZZ=            -42.9973
   XY=              4.6235   XZ=             -1.1082   YZ=             -0.4122
 Traceless Quadrupole moment (field-independent basis, Debye-Ang):
   XX=             -1.3365   YY=              3.8043   ZZ=             -2.4678
   XY=              4.6235   XZ=             -1.1082   YZ=             -0.4122
 Octapole moment (field-independent basis, Debye-Ang**2):
  XXX=             14.6457  YYY=              3.5650  ZZZ=             -0.1527  XYY=              7.5572
  XXY=             11.4618  XXZ=             -8.0661  XZZ=              7.0509  YZZ=              0.5542
  YYZ=             -1.3301  XYZ=             -2.7361
 Hexadecapole moment (field-independent basis, Debye-Ang**3):
 XXXX=           -552.9862 YYYY=           -213.2925 ZZZZ=           -104.8495 XXXY=             28.5707
 XXXZ=             -4.3321 YYYX=              5.9885 YYYZ=             -2.0354 ZZZX=             -9.1272
 ZZZY=             -0.5166 XXYY=           -117.9135 XXZZ=           -118.8360 YYZZ=            -53.9272
 XXYZ=             -9.7635 YYXZ=             -2.9679 ZZXY=              4.7760
 N-N= 2.999237731065D+02 E-N=-1.404327147117D+03  KE= 3.416775438502D+02
  Exact polarizability:       0.000       0.000       0.000       0.000       0.000       0.000
 Approx polarizability:      73.503       2.301      71.555       0.952       1.432      54.218
                          Isotropic Fermi Contact Couplings
        Atom                 a.u.       MegaHertz       Gauss      10(-4) cm-1
     1  C(13)              0.05319      59.79571      21.33660      19.94570
     2  C(13)              0.09836     110.57934      39.45746      36.88530
     3  O(17)              0.14398     -87.28250     -31.14457     -29.11431
     4  C(13)             -0.06323     -71.08573     -25.36515     -23.71165
     5  H(1)              -0.00830     -37.10428     -13.23973     -12.37666
     6  H(1)              -0.01191     -53.23533     -18.99569     -17.75740
     7  C(13)              0.09270     104.21033      37.18484      34.76082
     8  H(1)               0.00256      11.44281       4.08308       3.81691
     9  C(13)             -0.01931     -21.70671      -7.74549      -7.24058
    10  H(1)              -0.00732     -32.73088     -11.67919     -10.91785
    11  H(1)               0.02266     101.26871      36.13519      33.77961
    12  H(1)               0.01559      69.69955      24.87053      23.24927
    13  O(17)              0.03159     -19.14984      -6.83314      -6.38770
    14  H(1)              -0.00079      -3.52874      -1.25914      -1.17706
 --------------------------------------------------------
       Center         ----  Spin Dipole Couplings  ----
                      3XX-RR        3YY-RR        3ZZ-RR
 --------------------------------------------------------
     1   Atom       -0.120940     -0.123232      0.244172
     2   Atom       -0.254107     -0.297892      0.551999
     3   Atom        0.024060      0.051024     -0.075084
     4   Atom        0.077994      0.102781     -0.180775
     5   Atom       -0.025904      0.029827     -0.003923
     6   Atom       -0.018026      0.024583     -0.006557
     7   Atom       -0.210733     -0.279633      0.490366
     8   Atom        0.003342      0.002907     -0.006249
     9   Atom       -0.010433      0.003090      0.007343
    10   Atom        0.019201     -0.019542      0.000342
    11   Atom        0.001935      0.001184     -0.003119
    12   Atom       -0.002731      0.007735     -0.005004
    13   Atom       -0.060257     -0.119241      0.179498
    14   Atom       -0.000272      0.006351     -0.006079
 --------------------------------------------------------
                        XY            XZ            YZ
 --------------------------------------------------------
     1   Atom       -0.003398      0.003280      0.029333
     2   Atom        0.015712     -0.224613     -0.043037
     3   Atom       -0.001064      0.035353     -0.033353
     4   Atom        0.006663      0.081242      0.004509
     5   Atom        0.030536     -0.008129      0.005689
     6   Atom       -0.052337      0.011640     -0.019535
     7   Atom        0.007416     -0.202756     -0.007048
     8   Atom        0.007170      0.003703      0.002158
     9   Atom        0.003457      0.008568      0.009099
    10   Atom        0.031753      0.006980      0.008451
    11   Atom       -0.004434     -0.003005      0.004476
    12   Atom       -0.000131      0.001631     -0.005955
    13   Atom       -0.002898     -0.126366      0.008480
    14   Atom        0.005533     -0.004607     -0.000043
 --------------------------------------------------------


 ---------------------------------------------------------------------------------
              Anisotropic Spin Dipole Couplings in Principal Axis System
 ---------------------------------------------------------------------------------

       Atom             a.u.   MegaHertz   Gauss  10(-4) cm-1        Axes

              Baa    -0.1276   -17.119    -6.108    -5.710  0.4832  0.8724 -0.0731
     1 C(13)  Bbb    -0.1190   -15.962    -5.696    -5.324  0.8755 -0.4823  0.0311
              Bcc     0.2465    33.081    11.804    11.035  0.0082  0.0790  0.9968
 
              Baa    -0.3139   -42.118   -15.029   -14.049  0.9256 -0.3043  0.2250
     2 C(13)  Bbb    -0.2988   -40.093   -14.306   -13.374  0.2828  0.9513  0.1228
              Bcc     0.6126    82.211    29.335    27.423 -0.2514 -0.0500  0.9666
 
              Baa    -0.0933     6.751     2.409     2.252 -0.2800  0.2142  0.9358
     3 O(17)  Bbb     0.0310    -2.242    -0.800    -0.748  0.9120  0.3639  0.1895
              Bcc     0.0623    -4.509    -1.609    -1.504 -0.2999  0.9065 -0.2972
 
              Baa    -0.2042   -27.400    -9.777    -9.140 -0.2765 -0.0081  0.9610
     4 C(13)  Bbb     0.0944    12.669     4.521     4.226  0.7117 -0.6737  0.1991
              Bcc     0.1098    14.731     5.256     4.914  0.6458  0.7389  0.1921
 
              Baa    -0.0419   -22.343    -7.973    -7.453  0.8839 -0.3961  0.2487
     5 H(1)   Bbb    -0.0015    -0.803    -0.286    -0.268 -0.2443  0.0624  0.9677
              Bcc     0.0434    23.146     8.259     7.721  0.3989  0.9161  0.0416
 
              Baa    -0.0533   -28.420   -10.141    -9.480  0.8261  0.5628  0.0295
     6 H(1)   Bbb    -0.0135    -7.229    -2.579    -2.411 -0.1898  0.2286  0.9548
              Bcc     0.0668    35.648    12.720    11.891 -0.5306  0.7944 -0.2957
 
              Baa    -0.2815   -37.771   -13.477   -12.599 -0.3027  0.9505 -0.0708
     7 C(13)  Bbb    -0.2634   -35.346   -12.612   -11.790  0.9172  0.3107  0.2496
              Bcc     0.5449    73.117    26.090    24.389 -0.2593 -0.0106  0.9658
 
              Baa    -0.0075    -4.015    -1.433    -1.339 -0.3497  0.0468  0.9357
     8 H(1)   Bbb    -0.0038    -2.008    -0.716    -0.670 -0.6124  0.7444 -0.2661
              Bcc     0.0113     6.023     2.149     2.009  0.7090  0.6661  0.2316
 
              Baa    -0.0139    -1.864    -0.665    -0.622  0.9250  0.0151 -0.3797
     9 C(13)  Bbb    -0.0035    -0.472    -0.169    -0.158 -0.2250  0.8270 -0.5152
              Bcc     0.0174     2.337     0.834     0.779  0.3062  0.5620  0.7684
 
              Baa    -0.0378   -20.164    -7.195    -6.726 -0.4739  0.8741 -0.1070
    10 H(1)   Bbb    -0.0019    -1.015    -0.362    -0.339 -0.2727 -0.0301  0.9616
              Bcc     0.0397    21.179     7.557     7.065  0.8373  0.4849  0.2526
 
              Baa    -0.0059    -3.169    -1.131    -1.057  0.0367 -0.5152  0.8563
    11 H(1)   Bbb    -0.0025    -1.323    -0.472    -0.441  0.7702  0.5606  0.3042
              Bcc     0.0084     4.492     1.603     1.498 -0.6368  0.6483  0.4173
 
              Baa    -0.0078    -4.153    -1.482    -1.385 -0.2806  0.3418  0.8969
    12 H(1)   Bbb    -0.0023    -1.250    -0.446    -0.417  0.9582  0.1547  0.2408
              Bcc     0.0101     5.403     1.928     1.802 -0.0565  0.9270 -0.3709
 
              Baa    -0.1196     8.651     3.087     2.886 -0.1148  0.9904 -0.0766
    13 O(17)  Bbb    -0.1145     8.283     2.955     2.763  0.9116  0.1357  0.3880
              Bcc     0.2340   -16.934    -6.042    -5.649 -0.3946  0.0253  0.9185
 
              Baa    -0.0091    -4.876    -1.740    -1.626  0.5442 -0.1922  0.8166
    14 H(1)   Bbb    -0.0007    -0.380    -0.135    -0.127  0.6526 -0.5147 -0.5560
              Bcc     0.0098     5.255     1.875     1.753  0.5272  0.8356 -0.1547
 

 ---------------------------------------------------------------------------------

 No NMR shielding tensors so no spin-rotation constants.
 Leave Link  601 at Fri Sep 19 15:33:00 2025, MaxMem=   268435456 cpu:               7.3 elap:               1.9
 (Enter /apps/eb/gaussian/16-AVX2/g16/l701.exe)
 ... and contract with generalized density number  0.
 Compute integral second derivatives.
 R6Disp: Adding Grimme-D2 dispersion energy 2nd derivatives to the Hessian.
   1 Symmetry operations used in ECPInt.
 ECPInt:  NShTT=    2016 NPrTT=    7252 LenC2=    2009 LenP2D=    6007.
 LDataN:  DoStor=T MaxTD1= 6 Len=  172
 Leave Link  701 at Fri Sep 19 15:33:00 2025, MaxMem=   268435456 cpu:               2.8 elap:               0.7
 (Enter /apps/eb/gaussian/16-AVX2/g16/l702.exe)
 L702 exits ... SP integral derivatives will be done elsewhere.
 Leave Link  702 at Fri Sep 19 15:33:01 2025, MaxMem=   268435456 cpu:               0.2 elap:               0.1
 (Enter /apps/eb/gaussian/16-AVX2/g16/l703.exe)
 Integral derivatives from FoFJK, PRISM(SPDF).
 Compute integral second derivatives, UseDBF=F ICtDFT=           0.
 Calling FoFJK, ICntrl=    100127 FMM=F ISym2X=0 I1Cent= 0 IOpClX= 1 NMat=1 NMatS=1 NMatT=0.
 FoFJK:  IHMeth= 1 ICntrl=  100127 DoSepK=T KAlg= 0 I1Cent=           0 FoldK=F
 IRaf=         1 NMat=       1 IRICut=       1 DoRegI=T DoRafI=F ISym2E= 0 IDoP0=0 IntGTp=1.
 FoFCou: FMM=F IPFlag=           0 FMFlag=      100000 FMFlg1=         800
         NFxFlg=           0 DoJE=F BraDBF=F KetDBF=F FulRan=T
         wScrn=  0.000000 ICntrl=    100527 IOpCl=  0 I1Cent=           0 NGrid=           0
         NMat0=    1 NMatS0=      1 NMatT0=    0 NMatD0=    1 NMtDS0=    0 NMtDT0=    0
 Symmetry not used in FoFCou.
 Leave Link  703 at Fri Sep 19 15:33:59 2025, MaxMem=   268435456 cpu:             230.5 elap:              57.9
 (Enter /apps/eb/gaussian/16-AVX2/g16/l716.exe)
 Dipole        =-3.80540863D-01 6.93973025D-01 3.72430004D-02
 Polarizability= 0.00000000D+00 0.00000000D+00 0.00000000D+00
                 0.00000000D+00 0.00000000D+00 0.00000000D+00
 ***** Axes restored to original set *****
 -------------------------------------------------------------------
 Center     Atomic                   Forces (Hartrees/Bohr)
 Number     Number              X              Y              Z
 -------------------------------------------------------------------
      1        6           0.000081821   -0.000028840   -0.000033352
      2        6           0.009287417    0.046130004    0.043495385
      3        8          -0.000015091    0.000033947    0.000016321
      4        6          -0.000020462    0.000004559    0.000059534
      5        1          -0.000003638    0.000026493    0.000005467
      6        1          -0.009271009   -0.046164955   -0.043483510
      7        6          -0.000050324    0.000026204   -0.000019175
      8        1           0.000005990   -0.000002324   -0.000023209
      9        6          -0.000032266   -0.000009730   -0.000032136
     10        1           0.000022345   -0.000007410   -0.000001491
     11        1          -0.000002278    0.000002352    0.000000364
     12        1           0.000014552    0.000015663    0.000017022
     13        8          -0.000021445   -0.000020295   -0.000008958
     14        1           0.000004387   -0.000005669    0.000007739
 -------------------------------------------------------------------
 Cartesian Forces:  Max     0.046164955 RMS     0.013984750
 -----------------------------------------------------------------------------------------------
                       Internal Coordinate Forces (Hartree/Bohr or radian)
  Cent   Atom   N1       Length/X         N2         Alpha/Y        N3         Beta/Z          J
 -----------------------------------------------------------------------------------------------
      1  C 
      2  C        1   0.000019(     1)
      3  O        1  -0.000035(     2)      2   0.000002(    14)
      4  C        2   0.000066(     3)      1   0.000074(    15)      3  -0.000001(    26)     0
      5  H        2  -0.000009(     4)      1   0.000025(    16)      4   0.000039(    27)     0
      6  H        2   0.064093(     5)      1   0.000015(    17)      4  -0.000028(    28)     0
      7  C        4   0.000062(     6)      2   0.000128(    18)      1  -0.000027(    29)     0
      8  H        4  -0.000024(     7)      2   0.000000(    19)      7  -0.000005(    30)     0
      9  C        7   0.000001(     8)      4   0.000075(    20)      2  -0.000009(    31)     0
     10  H        7  -0.000024(     9)      4   0.000001(    21)      9   0.000001(    32)     0
     11  H        9   0.000001(    10)      7  -0.000005(    22)      4   0.000001(    33)     0
     12  H        9  -0.000027(    11)      7   0.000005(    23)     11   0.000005(    34)     0
     13  O        3  -0.000031(    12)      1  -0.000010(    24)      9   0.000004(    35)     0
     14  H       13   0.000009(    13)      3  -0.000008(    25)      1  -0.000003(    36)     0
 -----------------------------------------------------------------------------------------------
 Internal  Forces:  Max     0.064093448 RMS     0.010682299
 Force constants in internal coordinates: 
                1             2             3             4             5 
      1  0.423898D+00
      2  0.558022D-01  0.403669D+00
      3 -0.131756D-01  0.309843D-01  0.617099D+00
      4 -0.182050D-02  0.122549D-02  0.616447D-03  0.371180D+00
      5  0.837752D-01 -0.186390D-01  0.234963D-01 -0.116580D-02  0.870431D-01
      6 -0.100708D+00  0.322359D-02  0.240500D+00  0.132322D-02 -0.252021D-01
      7  0.115655D-03  0.396544D-03  0.900767D-03  0.203379D-03 -0.495754D-03
      8 -0.374309D-01 -0.249738D-01 -0.941970D-01  0.935071D-03 -0.381851D-02
      9  0.117626D-02  0.505255D-03  0.957655D-03  0.131317D-03 -0.119102D-03
     10 -0.466382D-02 -0.812148D-03  0.395053D-02  0.479994D-05  0.111597D-02
     11 -0.520146D-02  0.905873D-03  0.354774D-02  0.173146D-03  0.136156D-02
     12 -0.138764D-01  0.596459D-01 -0.122268D-01  0.771715D-03  0.171529D-01
     13 -0.460745D-03  0.987197D-03 -0.442494D-03  0.219529D-04 -0.392718D-03
     14 -0.198745D-01  0.146131D-01 -0.478651D-01 -0.129441D-02 -0.862673D-02
     15  0.302532D-01  0.124869D+00  0.766699D+00 -0.204971D-01 -0.181570D-02
     16  0.799948D-02 -0.352779D-03 -0.217859D-01  0.198464D-02 -0.299233D-02
     17  0.174179D+00  0.437928D-01 -0.567200D-01 -0.368437D-02  0.387070D+00
     18 -0.330968D+00  0.105085D+00  0.101482D+01  0.480004D-02 -0.174308D-01
     19  0.236121D-02  0.233393D-02  0.230488D-01 -0.390782D-03 -0.117857D-02
     20 -0.373476D+00  0.278583D-01  0.463597D+00  0.374161D-02 -0.218822D-01
     21 -0.839189D-02 -0.342169D-02 -0.136670D-02  0.705409D-03 -0.118390D-02
     22  0.132160D-01  0.136836D-02 -0.153219D-03 -0.608949D-04  0.124097D-02
     23  0.228271D-01 -0.153485D-02  0.291122D-03 -0.278907D-03 -0.199660D-02
     24 -0.167921D-01  0.477402D-01 -0.104782D-01  0.829176D-03  0.100447D-01
     25  0.213917D-02  0.316147D-02 -0.862938D-03  0.553634D-03  0.168174D-02
     26  0.951883D-02  0.162259D-01  0.412689D-01  0.396333D-03  0.166683D-01
     27 -0.544286D-02  0.210456D-02 -0.409112D-02  0.269796D-02  0.715992D-02
     28 -0.456506D-02 -0.213511D-01  0.211728D-01 -0.231501D-02 -0.263509D-02
     29  0.285885D-01  0.392329D-01 -0.593420D-01  0.340423D-02  0.281079D-01
     30 -0.355182D-02  0.172089D-02 -0.185900D-02  0.369105D-04 -0.196020D-03
     31  0.175281D-01  0.244989D-01 -0.509530D-01  0.246770D-02  0.211057D-01
     32  0.197988D-02 -0.132945D-02 -0.295499D-02 -0.711084D-04 -0.121931D-02
     33 -0.161040D-01  0.418973D-02  0.957218D-02  0.774689D-03  0.118151D-02
     34 -0.394645D-01  0.719493D-03  0.787499D-02  0.116901D-02  0.848361D-03
     35  0.757263D-02  0.246906D-02  0.198802D-02  0.364820D-03  0.330533D-02
     36  0.188168D-02  0.292656D-02  0.392888D-03  0.827442D-03  0.349589D-03
                6             7             8             9            10 
      6  0.709848D+00
      7  0.215804D-02  0.368696D+00
      8  0.204547D-01  0.446815D-03  0.365009D+00
      9  0.896045D-03  0.276254D-03 -0.593716D-03  0.370006D+00
     10  0.403161D-02  0.180408D-03  0.122610D-01  0.125825D-03  0.321500D+00
     11  0.534994D-02  0.671815D-04  0.795231D-02  0.279797D-03  0.290534D-02
     12  0.830372D-02 -0.246791D-05  0.603633D-02 -0.172535D-03  0.233945D-02
     13 -0.505731D-03 -0.490041D-04  0.347295D-03 -0.357601D-04 -0.828112D-04
     14  0.210237D-01  0.870375D-03  0.600062D-01 -0.596041D-03  0.173146D-02
     15  0.431794D+00  0.340501D-02 -0.312980D+00  0.105220D-02  0.735524D-02
     16  0.253383D-02  0.525831D-03  0.843985D-02 -0.882029D-03  0.356646D-04
     17  0.475533D-01  0.902688D-03 -0.392727D-02  0.421284D-03 -0.458415D-02
     18  0.105342D+01 -0.175624D-01 -0.250439D+00  0.417792D-02  0.218102D-01
     19 -0.189387D-01  0.606466D-03 -0.544906D-02  0.618527D-03 -0.116258D-03
     20  0.837055D+00  0.490568D-02  0.458688D-01 -0.209932D-01  0.234168D-01
     21  0.261292D-01 -0.955173D-03 -0.112187D-01  0.987762D-03 -0.609723D-03
     22 -0.156342D-01  0.786299D-03  0.210899D-01  0.325936D-03 -0.450955D-02
     23 -0.163871D-01  0.668261D-03  0.180851D-01  0.294969D-03 -0.103768D-01
     24  0.300183D-02 -0.304041D-03  0.616961D-02 -0.273937D-03 -0.542566D-03
     25 -0.678901D-03 -0.589912D-04 -0.192716D-03 -0.781844D-04  0.655597D-03
     26 -0.914007D-02  0.919882D-03 -0.354282D-01  0.127360D-02 -0.482979D-02
     27 -0.386004D-03  0.374689D-04 -0.128018D-02 -0.377408D-05 -0.881349D-03
     28  0.109967D-01 -0.270525D-03 -0.933511D-03 -0.133604D-03  0.272904D-02
     29 -0.978284D-01 -0.781964D-04 -0.139995D-01  0.136281D-02 -0.188004D-01
     30  0.743252D-02  0.168507D-02  0.103588D-02  0.785418D-04  0.331035D-03
     31 -0.742891D-01 -0.282633D-03 -0.455369D-02  0.361968D-03 -0.243686D-01
     32  0.179137D-03  0.995226D-05  0.200949D-02 -0.706033D-03  0.694741D-03
     33  0.176447D-01 -0.939762D-04  0.398668D-02  0.339470D-03 -0.167955D-01
     34  0.453171D-01  0.227885D-03  0.280012D-01  0.190367D-03 -0.154786D-01
     35 -0.345812D-02  0.329610D-03 -0.425118D-02 -0.245902D-04 -0.127772D-02
     36 -0.128133D-02 -0.379973D-04  0.263590D-04 -0.301838D-04 -0.959609D-04
               11            12            13            14            15 
     11  0.333173D+00
     12  0.643757D-03  0.234263D+00
     13 -0.828554D-04 -0.222535D-02  0.529044D+00
     14 -0.860621D-03 -0.268814D-02 -0.126785D-03  0.329984D+00
     15  0.106723D-01 -0.165070D-01 -0.282334D-02 -0.198684D+00  0.282753D+01
     16  0.690677D-03  0.349775D-02 -0.674365D-03 -0.109753D-01  0.783631D-01
     17 -0.216401D-02 -0.429207D-01 -0.709378D-03 -0.721301D-03  0.167378D-01
     18  0.252746D-01 -0.793038D-02 -0.257190D-02 -0.128624D+00  0.314414D+01
     19 -0.352153D-03 -0.687708D-03 -0.441169D-04  0.821158D-02  0.267158D-01
     20  0.258401D-01  0.765577D-02 -0.939456D-03  0.302727D-01  0.158433D+01
     21 -0.358330D-03  0.110591D-02  0.131142D-03  0.766827D-02 -0.285211D-01
     22 -0.114470D-01 -0.126117D-02  0.827131D-04 -0.440643D-02 -0.916457D-02
     23 -0.281644D-02  0.161670D-02 -0.496983D-04 -0.309857D-02 -0.115003D-01
     24  0.376470D-03  0.491149D-01  0.125330D-02  0.220106D-02 -0.325634D-01
     25 -0.888153D-04  0.618253D-01 -0.776180D-02 -0.499367D-03  0.297299D-03
     26  0.143116D-03 -0.161884D-01 -0.141173D-02 -0.524036D-01  0.159029D+00
     27  0.489291D-03 -0.183636D-02  0.245410D-03  0.104286D-02 -0.371182D-02
     28 -0.249314D-03 -0.135423D-01  0.132378D-02 -0.625799D-03  0.433667D-01
     29  0.249424D-02 -0.836299D-02 -0.374848D-02 -0.647648D-01 -0.158141D+00
     30 -0.198253D-03 -0.197157D-02  0.645684D-04  0.413390D-02 -0.164668D-02
     31  0.795836D-02 -0.958329D-02 -0.191871D-02 -0.499691D-01 -0.133321D+00
     32 -0.923862D-03  0.679942D-03  0.239883D-04 -0.841113D-03 -0.431835D-02
     33  0.113241D-01 -0.422066D-02  0.239343D-03 -0.471083D-02  0.308847D-01
[...]
 Alpha virt. eigenvalues --    2.18648   2.19882   2.26337   2.27066   2.32728
 Alpha virt. eigenvalues --    2.33806   2.39948   2.43200   2.53868   2.57236
 Alpha virt. eigenvalues --    2.59129   2.62879   2.67596   2.71741   2.74406
 Alpha virt. eigenvalues --    2.75678   2.78316   2.79453   2.84086   2.88624
 Alpha virt. eigenvalues --    2.95492   3.04478   3.07765   3.08518   3.10255
 Alpha virt. eigenvalues --    3.10819   3.36376   3.39140   3.46312   3.70516
 Alpha virt. eigenvalues --    3.84124
  Beta  occ. eigenvalues --  -19.22001 -19.18873 -10.37045 -10.36150 -10.35669
  Beta  occ. eigenvalues --  -10.33622 -10.31794  -1.07161  -0.98016  -0.95593
  Beta  occ. eigenvalues --   -0.83510  -0.80646  -0.67810  -0.65224  -0.61441
  Beta  occ. eigenvalues --   -0.57042  -0.50857  -0.50039  -0.48822  -0.47399
  Beta  occ. eigenvalues --   -0.47003  -0.45606  -0.40576  -0.33176  -0.30606
  Beta  occ. eigenvalues --   -0.29457
  Beta virt. eigenvalues --   -0.04539   0.00906   0.08992   0.13456   0.15521
  Beta virt. eigenvalues --    0.17985   0.19018   0.19745   0.21090   0.24142
  Beta virt. eigenvalues --    0.25230   0.29415   0.33501   0.38780   0.41427
  Beta virt. eigenvalues --    0.43691   0.46395   0.48254   0.50841   0.54282
  Beta virt. eigenvalues --    0.56642   0.57292   0.61365   0.63630   0.65650
  Beta virt. eigenvalues --    0.68258   0.68792   0.69473   0.71778   0.73332
  Beta virt. eigenvalues --    0.74650   0.74868   0.77573   0.78538   0.78838
  Beta virt. eigenvalues --    0.81721   0.84286   0.85195   0.88678   0.98779
  Beta virt. eigenvalues --    1.03251   1.05589   1.07641   1.12908   1.15177
  Beta virt. eigenvalues --    1.17355   1.22263   1.23886   1.26377   1.29520
  Beta virt. eigenvalues --    1.37165   1.38969   1.40584   1.55358   1.57211
  Beta virt. eigenvalues --    1.59224   1.61655   1.64903   1.68416   1.69379
  Beta virt. eigenvalues --    1.75172   1.77147   1.77770   1.79667   1.81363
  Beta virt. eigenvalues --    1.84108   1.87074   1.90438   1.92988   1.95645
  Beta virt. eigenvalues --    1.97788   2.05028   2.06092   2.07994   2.10208
  Beta virt. eigenvalues --    2.14860   2.18721   2.19973   2.26559   2.27281
  Beta virt. eigenvalues --    2.33018   2.35433   2.40095   2.43381   2.54096
  Beta virt. eigenvalues --    2.57383   2.59394   2.63003   2.67783   2.72552
  Beta virt. eigenvalues --    2.75472   2.77884   2.81618   2.84211   2.86219
  Beta virt. eigenvalues --    2.89000   2.95956   3.05555   3.07935   3.10777
  Beta virt. eigenvalues --    3.11737   3.14654   3.37090   3.39319   3.46433
  Beta virt. eigenvalues --    3.70996   3.86478
          Condensed to atoms (all electrons):
               1          2          3          4          5          6
     1  C    4.687876   0.125752   0.568185   0.028364  -0.017270   0.215090
     2  C    0.125752   5.636936  -0.093802   0.175730   0.390095   0.020734
     3  O    0.568185  -0.093802   7.950266   0.006819   0.003486  -0.021453
     4  C    0.028364   0.175730   0.006819   5.037900  -0.039572  -0.001277
     5  H   -0.017270   0.390095   0.003486  -0.039572   0.576297  -0.001825
     6  H    0.215090   0.020734  -0.021453  -0.001277  -0.001825   0.747830
     7  C   -0.074053   0.093599   0.006849   0.408313   0.006070  -0.020466
     8  H    0.005057  -0.045259  -0.000093   0.435533  -0.004500  -0.001980
     9  C    0.372938  -0.320088  -0.080740   0.022005   0.012401  -0.020523
    10  H    0.004415   0.006029  -0.000096  -0.041539  -0.000112  -0.000744
    11  H   -0.015902  -0.002728  -0.002926  -0.007071  -0.000311   0.005154
    12  H   -0.010125   0.011159   0.003525   0.005210  -0.000293  -0.006618
    13  O   -0.001826   0.009704   0.017011  -0.000397   0.000294   0.002258
    14  H   -0.003227  -0.001486   0.012207   0.000069  -0.000007  -0.000139
               7          8          9         10         11         12
     1  C   -0.074053   0.005057   0.372938   0.004415  -0.015902  -0.010125
     2  C    0.093599  -0.045259  -0.320088   0.006029  -0.002728   0.011159
     3  O    0.006849  -0.000093  -0.080740  -0.000096  -0.002926   0.003525
     4  C    0.408313   0.435533   0.022005  -0.041539  -0.007071   0.005210
     5  H    0.006070  -0.004500   0.012401  -0.000112  -0.000311  -0.000293
     6  H   -0.020466  -0.001980  -0.020523  -0.000744   0.005154  -0.006618
     7  C    5.083562  -0.053834   0.187629   0.408756   0.010135  -0.017988
     8  H   -0.053834   0.615973   0.008876  -0.005637  -0.000243  -0.000131
     9  C    0.187629   0.008876   5.223735  -0.028665   0.300650   0.355236
    10  H    0.408756  -0.005637  -0.028665   0.603089   0.000565  -0.004943
    11  H    0.010135  -0.000243   0.300650   0.000565   0.547890  -0.006634
    12  H   -0.017988  -0.000131   0.355236  -0.004943  -0.006634   0.600970
    13  O   -0.001056  -0.000028  -0.031869  -0.000026   0.063191   0.000364
    14  H    0.000189   0.000002   0.002027   0.000002  -0.004819  -0.000062
              13         14
     1  C   -0.001826  -0.003227
     2  C    0.009704  -0.001486
     3  O    0.017011   0.012207
     4  C   -0.000397   0.000069
     5  H    0.000294  -0.000007
     6  H    0.002258  -0.000139
     7  C   -0.001056   0.000189
     8  H   -0.000028   0.000002
     9  C   -0.031869   0.002027
    10  H   -0.000026   0.000002
    11  H    0.063191  -0.004819
    12  H    0.000364  -0.000062
    13  O    7.949218   0.291792
    14  H    0.291792   0.520295
          Atomic-Atomic Spin Densities.
               1          2          3          4          5          6
     1  C    0.013087  -0.007092  -0.002133   0.001807  -0.000190  -0.005219
     2  C   -0.007092   0.113089  -0.009141  -0.011265   0.000672   0.020530
     3  O   -0.002133  -0.009141   0.183838   0.000362  -0.000159   0.006215
     4  C    0.001807  -0.011265   0.000362  -0.048554   0.000125  -0.000567
     5  H   -0.000190   0.000672  -0.000159   0.000125  -0.005044   0.000066
     6  H   -0.005219   0.020530   0.006215  -0.000567   0.000066  -0.074276
     7  C   -0.001003  -0.006780   0.000155   0.008353  -0.000032  -0.003546
     8  H   -0.000095  -0.000390  -0.000004   0.000353   0.000040   0.000203
     9  C   -0.000931   0.001429  -0.001170  -0.000736  -0.000080   0.007520
    10  H   -0.000049  -0.000101  -0.000000   0.000003   0.000002   0.000123
    11  H    0.000674   0.000771  -0.000409  -0.001006   0.000024  -0.000812
    12  H   -0.000003  -0.000157  -0.000051   0.000008   0.000002   0.000665
    13  O   -0.003019   0.008710  -0.063237  -0.000518   0.000030  -0.001113
    14  H   -0.000090  -0.000127   0.001897   0.000008  -0.000003   0.000064
               7          8          9         10         11         12
     1  C   -0.001003  -0.000095  -0.000931  -0.000049   0.000674  -0.000003
     2  C   -0.006780  -0.000390   0.001429  -0.000101   0.000771  -0.000157
     3  O    0.000155  -0.000004  -0.001170  -0.000000  -0.000409  -0.000051
     4  C    0.008353   0.000353  -0.000736   0.000003  -0.001006   0.000008
     5  H   -0.000032   0.000040  -0.000080   0.000002   0.000024   0.000002
     6  H   -0.003546   0.000203   0.007520   0.000123  -0.000812   0.000665
     7  C    0.117215   0.000049  -0.007301   0.001154  -0.001029  -0.000053
     8  H    0.000049   0.001374   0.000020  -0.000012   0.000007  -0.000005
     9  C   -0.007301   0.000020  -0.030000  -0.000258   0.011608   0.000649
    10  H    0.001154  -0.000012  -0.000258  -0.006058   0.000174  -0.000034
    11  H   -0.001029   0.000007   0.011608   0.000174  -0.007880  -0.000440
    12  H   -0.000053  -0.000005   0.000649  -0.000034  -0.000440   0.000212
    13  O   -0.000245   0.000011   0.005960   0.000004  -0.006618   0.000043
    14  H    0.000027  -0.000001  -0.000437  -0.000000   0.000666   0.000003
              13         14
     1  C   -0.003019  -0.000090
     2  C    0.008710  -0.000127
     3  O   -0.063237   0.001897
     4  C   -0.000518   0.000008
     5  H    0.000030  -0.000003
     6  H   -0.001113   0.000064
     7  C   -0.000245   0.000027
     8  H    0.000011  -0.000001
     9  C    0.005960  -0.000437
    10  H    0.000004  -0.000000
    11  H   -0.006618   0.000666
    12  H    0.000043   0.000003
    13  O    0.874266   0.003691
    14  H    0.003691  -0.025694
 Mulliken charges and spin densities:
               1          2
     1  C    0.114727  -0.004257
     2  C   -0.006374   0.110147
     3  O   -0.369236   0.116163
     4  C   -0.030085  -0.051627
     5  H    0.075247  -0.004547
     6  H    0.083959  -0.050148
     7  C   -0.037703   0.106963
     8  H    0.046265   0.001549
     9  C   -0.003614  -0.013726
    10  H    0.058907  -0.005053
    11  H    0.113049  -0.004272
    12  H    0.070332   0.000838
    13  O   -0.298630   0.817965
    14  H    0.183157  -0.019995
 Sum of Mulliken charges =  -0.00000   1.00000
 Mulliken charges and spin densities with hydrogens summed into heavy atoms:
               1          2
     1  C    0.198685  -0.054405
     2  C    0.068873   0.105601
     3  O   -0.369236   0.116163
     4  C    0.016180  -0.050079
     7  C    0.021204   0.101910
     9  C    0.179767  -0.017160
    13  O   -0.115473   0.797970
 Electronic spatial extent (au):  <R**2>=            714.9400
 Charge=             -0.0000 electrons
 Dipole moment (field-independent basis, Debye):
    X=             -4.6285    Y=             -0.4134    Z=              0.1551  Tot=              4.6496
 Quadrupole moment (field-independent basis, Debye-Ang):
   XX=            -39.3759   YY=            -35.8074   ZZ=            -44.4497
   XY=             -1.8990   XZ=             -1.0470   YZ=             -0.4697
 Traceless Quadrupole moment (field-independent basis, Debye-Ang):
   XX=              0.5017   YY=              4.0702   ZZ=             -4.5720
   XY=             -1.8990   XZ=             -1.0470   YZ=             -0.4697
 Octapole moment (field-independent basis, Debye-Ang**2):
  XXX=             12.0828  YYY=              2.9818  ZZZ=              2.0179  XYY=              1.1249
  XXY=             -9.2276  XXZ=            -11.1591  XZZ=             -1.9810  YZZ=             -0.9746
  YYZ=             -0.9078  XYZ=              2.0785
 Hexadecapole moment (field-independent basis, Debye-Ang**3):
 XXXX=           -433.9173 YYYY=           -194.6753 ZZZZ=           -171.7089 XXXY=            -14.2407
 XXXZ=            -12.3815 YYYX=              0.8989 YYYZ=             -3.7011 ZZZX=             -6.5216
 ZZZY=              1.6007 XXYY=           -111.1874 XXZZ=           -122.9766 YYZZ=            -62.2189
 XXYZ=              1.0725 YYXZ=             -0.2966 ZZXY=             -3.1812
 N-N= 2.930220520425D+02 E-N=-1.391188797223D+03  KE= 3.415049371074D+02
                          Isotropic Fermi Contact Couplings
        Atom                 a.u.       MegaHertz       Gauss      10(-4) cm-1
     1  C(13)             -0.00718      -8.07425      -2.88109      -2.69328
     2  C(13)              0.00826       9.28703       3.31384       3.09782
     3  O(17)              0.15858     -96.12975     -34.30149     -32.06543
     4  C(13)             -0.01308     -14.70510      -5.24714      -4.90509
     5  H(1)              -0.00142      -6.35878      -2.26897      -2.12106
     6  H(1)              -0.01916     -85.63898     -30.55812     -28.56609
     7  C(13)              0.01904      21.40606       7.63821       7.14029
     8  H(1)               0.00048       2.15995       0.77072       0.72048
     9  C(13)             -0.01276     -14.34695      -5.11935      -4.78563
    10  H(1)              -0.00163      -7.26363      -2.59184      -2.42289
    11  H(1)               0.00155       6.93385       2.47417       2.31288
    12  H(1)               0.00038       1.71914       0.61343       0.57344
    13  O(17)              0.30276    -183.53101     -65.48843     -61.21935
    14  H(1)              -0.00998     -44.61979     -15.92145     -14.88356
 --------------------------------------------------------
       Center         ----  Spin Dipole Couplings  ----
                      3XX-RR        3YY-RR        3ZZ-RR
 --------------------------------------------------------
     1   Atom        0.017363     -0.006771     -0.010592
     2   Atom        0.007097     -0.036544      0.029447
     3   Atom       -0.274305     -0.338668      0.612973
     4   Atom        0.012946      0.017144     -0.030089
     5   Atom       -0.002641      0.008110     -0.005469
     6   Atom        0.002624     -0.004636      0.002013
     7   Atom       -0.034699     -0.052390      0.087089
     8   Atom        0.001395      0.000865     -0.002260
     9   Atom        0.009052     -0.006737     -0.002315
    10   Atom        0.004857     -0.002673     -0.002184
    11   Atom        0.006048      0.002218     -0.008266
    12   Atom        0.001422     -0.001090     -0.000332
    13   Atom       -1.195096     -1.075284      2.270379
    14   Atom        0.097454     -0.074629     -0.022825
 --------------------------------------------------------
                        XY            XZ            YZ
 --------------------------------------------------------
     1   Atom        0.000844     -0.007333      0.001962
     2   Atom       -0.035226     -0.081698      0.054618
     3   Atom        0.028316     -0.161091     -0.114863
     4   Atom        0.003318      0.019201     -0.008400
     5   Atom       -0.002664     -0.005063      0.002395
     6   Atom       -0.001819     -0.000372     -0.003039
     7   Atom       -0.006870     -0.049339      0.026302
     8   Atom        0.000252     -0.000101      0.000032
     9   Atom        0.001766     -0.005146     -0.009963
    10   Atom        0.007523     -0.001380      0.001978
    11   Atom        0.013343     -0.004683     -0.004433
    12   Atom        0.002042     -0.001560     -0.002288
    13   Atom       -0.395946     -1.123543      1.349429
    14   Atom       -0.083214      0.061956     -0.009777
 --------------------------------------------------------


 ---------------------------------------------------------------------------------
              Anisotropic Spin Dipole Couplings in Principal Axis System
 ---------------------------------------------------------------------------------

       Atom             a.u.   MegaHertz   Gauss  10(-4) cm-1        Axes

              Baa    -0.0131    -1.758    -0.627    -0.586  0.2303 -0.3160  0.9204
     1 C(13)  Bbb    -0.0061    -0.815    -0.291    -0.272  0.0628  0.9487  0.3100
              Bcc     0.0192     2.573     0.918     0.858  0.9711  0.0136 -0.2383
 
              Baa    -0.0719    -9.647    -3.442    -3.218  0.4149 -0.6182  0.6676
     2 C(13)  Bbb    -0.0543    -7.290    -2.601    -2.432  0.6862  0.6944  0.2165
              Bcc     0.1262    16.937     6.044     5.650 -0.5975  0.3683  0.7123
 
              Baa    -0.3539    25.609     9.138     8.542 -0.1707  0.9814  0.0881
     3 O(17)  Bbb    -0.3014    21.811     7.783     7.275  0.9700  0.1517  0.1899
              Bcc     0.6553   -47.419   -16.920   -15.817 -0.1730 -0.1179  0.9778
 
              Baa    -0.0389    -5.216    -1.861    -1.740 -0.3520  0.1592  0.9224
     4 C(13)  Bbb     0.0186     2.495     0.890     0.832 -0.0027  0.9853 -0.1711
              Bcc     0.0203     2.721     0.971     0.907  0.9360  0.0627  0.3464
 
              Baa    -0.0093    -4.971    -1.774    -1.658  0.5995 -0.0183  0.8002
     5 H(1)   Bbb    -0.0003    -0.165    -0.059    -0.055  0.7412  0.3899 -0.5464
              Bcc     0.0096     5.137     1.833     1.713 -0.3020  0.9207  0.2473
 
              Baa    -0.0062    -3.306    -1.180    -1.103  0.2035  0.9151  0.3480
     6 H(1)   Bbb     0.0028     1.483     0.529     0.495  0.7874  0.0583 -0.6137
              Bcc     0.0034     1.824     0.651     0.608  0.5819 -0.3989  0.7087
 
              Baa    -0.0578    -7.762    -2.770    -2.589 -0.3003  0.9153 -0.2683
     7 C(13)  Bbb    -0.0513    -6.879    -2.455    -2.295  0.8960  0.3671  0.2497
              Bcc     0.1091    14.642     5.225     4.884 -0.3271  0.1654  0.9304
 
              Baa    -0.0023    -1.207    -0.431    -0.403  0.0284 -0.0126  0.9995
     8 H(1)   Bbb     0.0008     0.408     0.146     0.136 -0.3691  0.9291  0.0222
              Bcc     0.0015     0.799     0.285     0.266  0.9290  0.3695 -0.0217
 
              Baa    -0.0149    -1.997    -0.713    -0.666  0.0810  0.7646  0.6394
     9 C(13)  Bbb     0.0020     0.274     0.098     0.092  0.5778 -0.5588  0.5950
              Bcc     0.0128     1.722     0.615     0.575  0.8122  0.3212 -0.4870
 
              Baa    -0.0083    -4.414    -1.575    -1.472 -0.4911  0.7896 -0.3678
    10 H(1)   Bbb    -0.0012    -0.658    -0.235    -0.220 -0.1834  0.3191  0.9298
              Bcc     0.0095     5.072     1.810     1.692  0.8516  0.5241 -0.0119
 
              Baa    -0.0099    -5.290    -1.888    -1.765 -0.1304  0.4636  0.8764
    11 H(1)   Bbb    -0.0092    -4.916    -1.754    -1.640  0.6664 -0.6135  0.4237
              Bcc     0.0191    10.206     3.642     3.404  0.7341  0.6393 -0.2289
 
              Baa    -0.0031    -1.667    -0.595    -0.556 -0.1676  0.8063  0.5672
    12 H(1)   Bbb    -0.0009    -0.493    -0.176    -0.165  0.6983 -0.3091  0.6457
              Bcc     0.0040     2.160     0.771     0.720  0.6959  0.5043 -0.5112
 
              Baa    -1.5517   112.282    40.065    37.453 -0.0261  0.9402 -0.3396
    13 O(17)  Bbb    -1.5271   110.501    39.430    36.859  0.9629  0.1148  0.2441
              Bcc     3.0788  -222.783   -79.495   -74.313 -0.2685  0.3207  0.9083
 
              Baa    -0.1110   -59.247   -21.141   -19.763  0.4123  0.8909 -0.1908
    14 H(1)   Bbb    -0.0415   -22.119    -7.893    -7.378 -0.2299  0.3044  0.9244
              Bcc     0.1525    81.366    29.034    27.141  0.8816 -0.3372  0.3303
 

 ---------------------------------------------------------------------------------

 No NMR shielding tensors so no spin-rotation constants.
 Leave Link  601 at Fri Sep 19 16:28:54 2025, MaxMem=   268435456 cpu:               5.3 elap:               1.4
 (Enter /apps/eb/gaussian/16-AVX2/g16/l9999.exe)
 Unable to Open any file for archive entry.
 1\1\GINC-C4-4\FTS\UwB97XD\def2SVP\C5H7O2(2)\AVCOPAN\19-Sep-2025\1\\#P 
 wb97xd/def2svp # SCF=(xqc) # POpt=(CALCFC,TS,NOEIGEN,MAXCYCLES=60) # i
 nt=ultrafine\\comment:\\0,2\C\C,1,R1\O,1,R2,2,A2\C,2,R3,1,A3,3,D3,0\H,
 2,R4,1,A4,4,D4,0\H,2,R5,1,A5,4,D5,0\C,4,R6,2,A6,1,D6,0\H,4,R7,2,A7,7,D
 7,0\C,7,R8,4,A8,2,D8,0\H,7,R9,4,A9,9,D9,0\H,9,R10,7,A10,4,D10,0\H,9,R1
 1,7,A11,11,D11,0\O,3,R12,1,A12,9,D12,0\H,13,R13,3,A13,1,D13,0\\R1=1.46
 641081\R2=1.27199595\R3=1.41410521\R4=1.09256056\R5=1.7561021\R6=1.371
 86943\R7=1.08989961\R8=1.46414095\R9=1.09275962\R10=1.10980452\R11=1.0
 9827462\R12=2.20238909\R13=0.96796066\A2=126.62802638\A3=111.81051849\
 A4=121.58961354\A5=42.08354001\A6=108.78111517\A7=125.38851699\A8=111.
 59778859\A9=123.95521022\A10=110.53192154\A11=116.26921043\A12=89.7889
 1074\A13=77.23357574\D3=157.9111394\D4=177.72722749\D5=88.16220703\D6=
 -6.15965426\D7=176.04084213\D8=355.96624595\D9=173.75126517\D10=269.28
 829125\D11=234.61012309\D12=68.61980761\D13=202.66658659\\Version=ES64
 L-G16RevC.01\State=2-A\HF=-344.6054642\S2=0.772423\S2-1=0.\S2A=0.75015
 8\RMSD=9.875e-09\RMSF=1.966e-05\Dipole=-1.5985218,-0.2384594,0.8568024
 \Quadrupole=0.0644159,-1.6358687,1.5714527,-0.0998263,0.6577125,-3.182
 6546\PG=C01 [X(C5H7O2)]\\@
 The archive entry for this job was punched.


 A great many people think they are thinking when they
 are merely rearranging their prejudices.
                               -- William James
 Job cpu time:       0 days  3 hours 52 minutes 45.1 seconds.
 Elapsed time:       0 days  0 hours 58 minutes 43.9 seconds.
 File lengths (MBytes):  RWF=     61 Int=      0 D2E=      0 Chk=      3 Scr=      1
 Normal termination of Gaussian 16 at Fri Sep 19 16:28:55 2025.
