 Entering Gaussian System, Link 0=g16
 Input=run.inp
 Output=run.out
 Initial command:
 /gpfs/fs1/soft/bebop/software/custom-built/gaussian/16-c.02/g16/l1.exe "/scratch/Gau-2811965.inp" -scrdir="/scratch/"
 Default CPUs for threads: 0-35
 Default is to use a total of  36 processors:
                               36 via shared-memory
                                1 via Linda
 Entering Link 1 = /gpfs/fs1/soft/bebop/software/custom-built/gaussian/16-c.02/g16/l1.exe PID=   2811966.
  
 Copyright (c) 1988-2019, Gaussian, Inc.  All Rights Reserved.
  
 This is part of the Gaussian(R) 16 program.  It is based on
 the Gaussian(R) 09 system (copyright 2009, Gaussian, Inc.),
 the Gaussian(R) 03 system (copyright 2003, Gaussian, Inc.),
 the Gaussian(R) 98 system (copyright 1998, Gaussian, Inc.),
 the Gaussian(R) 94 system (copyright 1995, Gaussian, Inc.),
 the Gaussian 92(TM) system (copyright 1992, Gaussian, Inc.),
 the Gaussian 90(TM) system (copyright 1990, Gaussian, Inc.),
 the Gaussian 88(TM) system (copyright 1988, Gaussian, Inc.),
 the Gaussian 86(TM) system (copyright 1986, Carnegie Mellon
 University), and the Gaussian 82(TM) system (copyright 1983,
 Carnegie Mellon University). Gaussian is a federally registered
 trademark of Gaussian, Inc.
  
 This software contains proprietary and confidential information,
 including trade secrets, belonging to Gaussian, Inc.
  
 This software is provided under written license and may be
 used, copied, transmitted, or stored only in accord with that
 written license.
  
 The following legend is applicable only to US Government
 contracts under FAR:
  
                    RESTRICTED RIGHTS LEGEND
  
 Use, reproduction and disclosure by the US Government is
 subject to restrictions as set forth in subparagraphs (a)
 and (c) of the Commercial Computer Software - Restricted
 Rights clause in FAR 52.227-19.
  
 Gaussian, Inc.
 340 Quinnipiac St., Bldg. 40, Wallingford CT 06492
  
  
 ---------------------------------------------------------------
 Warning -- This program may not be used in any manner that
 competes with the business of Gaussian, Inc. or will provide
 assistance to any competitor of Gaussian, Inc.  The licensee
 of this program is prohibited from giving any competitor of
 Gaussian, Inc. access to this program.  By using this program,
 the user acknowledges that Gaussian, Inc. is engaged in the
 business of creating and licensing software in the field of
 computational chemistry and represents and warrants to the
 licensee that it is not a competitor of Gaussian, Inc. and that
 it will not use this program in any manner prohibited above.
 ---------------------------------------------------------------
  

 Cite this work as:
 Gaussian 16, Revision C.01,
 M. J. Frisch, G. W. Trucks, H. B. Schlegel, G. E. Scuseria, 
 M. A. Robb, J. R. Cheeseman, G. Scalmani, V. Barone, 
 G. A. Petersson, H. Nakatsuji, X. Li, M. Caricato, A. V. Marenich, 
 J. Bloino, B. G. Janesko, R. Gomperts, B. Mennucci, H. P. Hratchian, 
 J. V. Ortiz, A. F. Izmaylov, J. L. Sonnenberg, D. Williams-Young, 
 F. Ding, F. Lipparini, F. Egidi, J. Goings, B. Peng, A. Petrone, 
 T. Henderson, D. Ranasinghe, V. G. Zakrzewski, J. Gao, N. Rega, 
 G. Zheng, W. Liang, M. Hada, M. Ehara, K. Toyota, R. Fukuda, 
 J. Hasegawa, M. Ishida, T. Nakajima, Y. Honda, O. Kitao, H. Nakai, 
 T. Vreven, K. Throssell, J. A. Montgomery, Jr., J. E. Peralta, 
 F. Ogliaro, M. J. Bearpark, J. J. Heyd, E. N. Brothers, K. N. Kudin, 
 V. N. Staroverov, T. A. Keith, R. Kobayashi, J. Normand, 
 K. Raghavachari, A. P. Rendell, J. C. Burant, S. S. Iyengar, 
 J. Tomasi, M. Cossi, J. M. Millam, M. Klene, C. Adamo, R. Cammi, 
 J. W. Ochterski, R. L. Martin, K. Morokuma, O. Farkas, 
 J. B. Foresman, and D. J. Fox, Gaussian, Inc., Wallingford CT, 2019.
 
 ******************************************
 Gaussian 16:  ES64L-G16RevC.01  3-Jul-2019
                26-May-2025 
 ******************************************
 %mem=28GB
 %NProcShared=6
 Will use up to    6 processors via shared memory.
 -------------------------------------------------------
 #P wb97xd/def2svp # SCF=(xqc) # POpt=() # int=ultrafine
 -------------------------------------------------------
 1/10=7,26=4,38=1/1,3;
 2/12=2,17=6,18=5,29=3,40=1/2;
 3/5=43,7=101,11=2,25=1,30=1,71=1,74=-58,75=-5/1,2,3;
 4//1;
 5/5=2,8=3,13=1,38=5/2,8;
 6/7=2,8=2,9=2,10=2,28=1/1;
 7/29=1/1,2,3,16;
 1/10=7,26=4/3(2);
 2/29=3/2;
 99//99;
 2/29=3/2;
 3/5=43,7=101,11=2,25=1,30=1,71=1,74=-58,75=-5/1,2,3;
 4/5=5,16=3,69=1/1;
 5/5=2,8=3,13=1,38=5/2,8;
 7//1,2,3,16;
 1/26=4/3(-5);
 2/29=3/2;
 6/7=2,8=2,9=2,10=2,19=2,28=1/1;
 99/9=1/99;
 Leave Link    1 at Mon May 26 11:48:56 2025, MaxMem=  3758096384 cpu:               0.6 elap:               0.1
 (Enter /gpfs/fs1/soft/bebop/software/custom-built/gaussian/16-c.02/g16/l101.exe)
 --------
 comment:
 --------
 Symbolic Z-matrix:
 Charge =  0 Multiplicity = 2
 C
 C                    1    R1
 C                    1    R2       2    A2
 H                    1    R3       2    A3       3    D3       0
 C                    2    R4       1    A4       3    D4       0
 H                    2    R5       1    A5       5    D5       0
 H                    2    R6       1    A6       5    D6       0
 O                    5    R7       2    A7       1    D7       0
 H                    5    R8       2    A8       8    D8       0
 O                    8    R9       5    A9       2    D9       0
 C                    3    R10      1    A10      2    D10      0
 H                    3    R11      1    A11      11   D11      0
 H                    11   R12      3    A12      1    D12      0
 H                    10   R13      8    A13      5    D13      0
       Variables:
  R1                    1.50342                  
  R2                    1.5031                   
  R3                    1.09234                  
  R5                    1.09677                  
  R6                    1.10595                  
  R8                    1.09766                  
  R10                   1.55322                  
  R11                   1.09923                  
  R12                   1.09723                  
  R13                   0.96606                  
  A2                  108.41268                  
  A3                  125.39083                  
  A5                  113.81845                  
  A6                  114.79289                  
  A8                  120.39095                  
  A9                  100.92534                  
  A10                 101.26231                  
  A11                 145.55694                  
  A12                 112.8016                   
  A13                  93.90891                  
  D3                  163.02575                  
  D5                  113.86367                  
  D6                  242.32036                  
  D8                  118.84777                  
  D9                  164.24457                  
  D10                 329.20304                  
  D11                 180.                       
  D12                 180.                       
  D13                 175.12738                  
       Constants:
  R4                    1.52402                  
  A4                   88.36806                  
  D4                   53.9799                   
  R7                    1.43024                  
  A7                   94.85148                  
  D7                   48.4988                   
  R9                    1.71355                  
 
 ITRead=  0  0  0  0  0  0  0  0  0  0  0  0  0  0
 MicOpt= -1 -1 -1 -1 -1 -1 -1 -1 -1 -1 -1 -1 -1 -1
 NAtoms=     14 NQM=       14 NQMF=       0 NMMI=      0 NMMIF=      0
                NMic=       0 NMicF=      0.
                    Isotopes and Nuclear Properties:
 (Nuclear quadrupole moments (NQMom) in fm**2, nuclear magnetic moments (NMagM)
  in nuclear magnetons)

  Atom         1           2           3           4           5           6           7           8           9          10
 IAtWgt=          12          12          12           1          12           1           1          16           1          16
 AtmWgt=  12.0000000  12.0000000  12.0000000   1.0078250  12.0000000   1.0078250   1.0078250  15.9949146   1.0078250  15.9949146
 NucSpn=           0           0           0           1           0           1           1           0           1           0
 AtZEff=  -0.0000000  -0.0000000  -0.0000000  -0.0000000  -0.0000000  -0.0000000  -0.0000000  -0.0000000  -0.0000000  -0.0000000
 NQMom=    0.0000000   0.0000000   0.0000000   0.0000000   0.0000000   0.0000000   0.0000000   0.0000000   0.0000000   0.0000000
 NMagM=    0.0000000   0.0000000   0.0000000   2.7928460   0.0000000   2.7928460   2.7928460   0.0000000   2.7928460   0.0000000
 AtZNuc=   6.0000000   6.0000000   6.0000000   1.0000000   6.0000000   1.0000000   1.0000000   8.0000000   1.0000000   8.0000000

  Atom        11          12          13          14
 IAtWgt=          12           1           1           1
 AtmWgt=  12.0000000   1.0078250   1.0078250   1.0078250
 NucSpn=           0           1           1           1
 AtZEff=  -0.0000000  -0.0000000  -0.0000000  -0.0000000
 NQMom=    0.0000000   0.0000000   0.0000000   0.0000000
 NMagM=    0.0000000   2.7928460   2.7928460   2.7928460
 AtZNuc=   6.0000000   1.0000000   1.0000000   1.0000000
 Leave Link  101 at Mon May 26 11:48:57 2025, MaxMem=  3758096384 cpu:               0.7 elap:               0.2
 (Enter /gpfs/fs1/soft/bebop/software/custom-built/gaussian/16-c.02/g16/l103.exe)

 GradGradGradGradGradGradGradGradGradGradGradGradGradGradGradGradGradGrad
 Berny optimization.
 Initialization pass.
                       ----------------------------
                       !    Initial Parameters    !
                       ! (Angstroms and Degrees)  !
 ----------------------                            ----------------------
 !      Name          Value   Derivative information (Atomic Units)     !
 ------------------------------------------------------------------------
 !       R1          1.5034   estimate D2E/DX2                          !
 !       R2          1.5031   estimate D2E/DX2                          !
 !       R3          1.0923   estimate D2E/DX2                          !
 !       R5          1.0968   estimate D2E/DX2                          !
 !       R6          1.106    estimate D2E/DX2                          !
 !       R8          1.0977   estimate D2E/DX2                          !
 !       R10         1.5532   estimate D2E/DX2                          !
 !       R11         1.0992   estimate D2E/DX2                          !
 !       R12         1.0972   estimate D2E/DX2                          !
 !       R13         0.9661   estimate D2E/DX2                          !
 !       A2        108.4127   estimate D2E/DX2                          !
 !       A3        125.3908   estimate D2E/DX2                          !
 !       A5        113.8185   estimate D2E/DX2                          !
 !       A6        114.7929   estimate D2E/DX2                          !
 !       A8        120.391    estimate D2E/DX2                          !
 !       A9        100.9253   estimate D2E/DX2                          !
 !       A10       101.2623   estimate D2E/DX2                          !
 !       A11       145.5569   estimate D2E/DX2                          !
 !       A12       112.8016   estimate D2E/DX2                          !
 !       A13        93.9089   estimate D2E/DX2                          !
 !       D3        163.0257   estimate D2E/DX2                          !
 !       D5        113.8637   estimate D2E/DX2                          !
 !       D6        242.3204   estimate D2E/DX2                          !
 !       D8        118.8478   estimate D2E/DX2                          !
 !       D9        164.2446   estimate D2E/DX2                          !
 !       D10       329.203    estimate D2E/DX2                          !
 !       D11       180.0      estimate D2E/DX2                          !
 !       D12       180.0      estimate D2E/DX2                          !
 !       D13       175.1274   estimate D2E/DX2                          !
 !       R4          1.524    Frozen                                    !
 !       A4         88.3681   Frozen                                    !
 !       D4         53.9799   Frozen                                    !
 !       R7          1.4302   Frozen                                    !
 !       A7         94.8515   Frozen                                    !
 !       D7         48.4988   Frozen                                    !
 !       R9          1.7136   Frozen                                    !
 ------------------------------------------------------------------------
 Trust Radius=3.00D-01 FncErr=1.00D-07 GrdErr=1.00D-06 EigMax=2.50D+02 EigMin=1.00D-04
 Number of steps in this run=     46 maximum allowed number of steps=    100.
 GradGradGradGradGradGradGradGradGradGradGradGradGradGradGradGradGradGrad

 Leave Link  103 at Mon May 26 11:48:57 2025, MaxMem=  3758096384 cpu:               0.1 elap:               0.0
 (Enter /gpfs/fs1/soft/bebop/software/custom-built/gaussian/16-c.02/g16/l202.exe)
 ---------------------------------------------------------------------------------------------------
                            Z-MATRIX (ANGSTROMS AND DEGREES)
   CD    Cent   Atom    N1       Length/X        N2       Alpha/Y        N3        Beta/Z          J
 ---------------------------------------------------------------------------------------------------
      1      1  C 
      2      2  C        1   1.503422(     1)
      3      3  C        1   1.503102(     2)      2  108.413(    14)
      4      4  H        1   1.092337(     3)      2  125.391(    15)      3  163.026(    26)      0
      5      5  C        2   1.524019(     4)      1   88.368(    16)      3   53.980(    27)      0
      6      6  H        2   1.096773(     5)      1  113.818(    17)      5  113.864(    28)      0
      7      7  H        2   1.105953(     6)      1  114.793(    18)      5  242.320(    29)      0
      8      8  O        5   1.430244(     7)      2   94.851(    19)      1   48.499(    30)      0
      9      9  H        5   1.097663(     8)      2  120.391(    20)      8  118.848(    31)      0
     10     10  O        8   1.713551(     9)      5  100.925(    21)      2  164.245(    32)      0
     11     11  C        3   1.553216(    10)      1  101.262(    22)      2  329.203(    33)      0
     12     12  H        3   1.099229(    11)      1  145.557(    23)     11  180.000(    34)      0
     13     13  H       11   1.097225(    12)      3  112.802(    24)      1  180.000(    35)      0
     14     14  H       10   0.966059(    13)      8   93.909(    25)      5  175.127(    36)      0
 ---------------------------------------------------------------------------------------------------
                         Z-Matrix orientation:                         
 ---------------------------------------------------------------------
 Center     Atomic      Atomic             Coordinates (Angstroms)
 Number     Number       Type             X           Y           Z
 ---------------------------------------------------------------------
      1          6           0        0.000000    0.000000    0.000000
      2          6           0        0.000000    0.000000    1.503422
      3          6           0        1.426152    0.000000   -0.474768
      4          1           0       -0.851702   -0.259973   -0.632628
      5          6           0        0.895865    1.232143    1.460020
      6          1           0       -0.980861    0.211289    1.946343
      7          1           0        0.444855   -0.900085    1.967192
      8          8           0        0.087884    1.935850    0.512623
      9          1           0        1.070009    1.824347    2.367672
     10          8           0        0.698226    3.527792    0.684270
     11          6           0        2.127269    0.779929    0.670931
     12          1           0        2.117584   -0.318314   -1.267802
     13          1           0        3.206833    0.892306    0.510253
     14          1           0        0.158548    3.883028   -0.033940
 ---------------------------------------------------------------------
                    Distance matrix (angstroms):
                    1          2          3          4          5
     1  C    0.000000
     2  C    1.503422   0.000000
     3  C    1.503102   2.438677   0.000000
     4  H    1.092337   2.314237   2.298070   0.000000
     5  C    2.110073   1.524019   2.354312   3.107985   0.000000
     6  H    2.189745   1.096773   3.420546   2.624854   2.191062
     7  H    2.208595   1.105953   2.781415   2.974872   2.237640
     8  O    2.004501   2.176447   2.552140   2.648785   1.430244
     9  H    3.174749   2.284751   3.396255   4.127852   1.097663
    10  O    3.660746   3.688339   3.783988   4.299263   2.431224
    11  C    2.362988   2.413836   1.553216   3.413932   1.530855
    12  H    2.488536   3.502167   1.099229   3.037023   3.367124
    13  H    3.367543   3.473668   2.222004   4.370998   2.521531
    14  H    3.886412   4.179297   4.108413   4.306215   3.130933
                    6          7          8          9         10
     6  H    0.000000
     7  H    1.807832   0.000000
     8  O    2.484327   3.207137   0.000000
     9  H    2.643018   2.823780   2.101953   0.000000
    10  O    3.925729   4.616945   1.713551   2.423590   0.000000
    11  C    3.407419   2.707999   2.349534   2.255558   3.097272
    12  H    4.495728   3.688044   3.517222   4.347998   4.540671
    13  H    4.479165   3.600536   3.288895   2.980725   3.642688
    14  H    4.324516   5.192752   2.023666   3.291909   0.966059
                   11         12         13         14
    11  C    0.000000
    12  H    2.228209   0.000000
    13  H    1.097225   2.411129   0.000000
    14  H    3.741915   4.797031   4.304951   0.000000
 Stoichiometry    C5H7O2(2)
 Framework group  C1[X(C5H7O2)]
 Deg. of freedom    36
 Full point group                 C1      NOp   1
 Largest Abelian subgroup         C1      NOp   1
 Largest concise Abelian subgroup C1      NOp   1
                         Standard orientation:                         
 ---------------------------------------------------------------------
 Center     Atomic      Atomic             Coordinates (Angstroms)
 Number     Number       Type             X           Y           Z
 ---------------------------------------------------------------------
      1          6           0        1.178342   -0.449495   -0.808776
      2          6           0        1.013605   -1.149642    0.511426
      3          6           0        1.300576    1.026369   -0.551481
      4          1           0        1.463823   -0.928932   -1.747840
      5          6           0       -0.160755   -0.224133    0.806290
      6          1           0        0.707024   -2.198818    0.421147
      7          1           0        1.878256   -1.059764    1.195117
      8          8           0       -0.795334   -0.426934   -0.459325
      9          1           0       -0.839554   -0.437335    1.642138
     10          8           0       -2.364508    0.181408   -0.137036
     11          6           0        0.435272    1.183792    0.728733
     12          1           0        1.737521    1.973775   -0.897610
     13          1           0        0.394462    2.219125    1.089735
     14          1           0       -2.665043    0.074817   -1.048950
 ---------------------------------------------------------------------
 Rotational constants (GHZ):           4.5628401           2.3880523           2.1378042
 Leave Link  202 at Mon May 26 11:48:57 2025, MaxMem=  3758096384 cpu:               0.1 elap:               0.0
 (Enter /gpfs/fs1/soft/bebop/software/custom-built/gaussian/16-c.02/g16/l301.exe)
 Standard basis: def2SVP (5D, 7F)
 Ernie: Thresh=  0.10000D-02 Tol=  0.10000D-05 Strict=F.
 There are   140 symmetry adapted cartesian basis functions of A   symmetry.
 There are   133 symmetry adapted basis functions of A   symmetry.
   133 basis functions,   224 primitive gaussians,   140 cartesian basis functions
    27 alpha electrons       26 beta electrons
       nuclear repulsion energy       300.9709410356 Hartrees.
 IExCor= 4639 DFT=T Ex+Corr=wB97XD ExCW=0 ScaHFX=  1.000000
 ScaDFX=  1.000000  1.000000  1.000000  1.000000 ScalE2=  1.000000  1.000000
 IRadAn=      5 IRanWt=     -1 IRanGd=            0 ICorTp=0 IEmpDi=121
 HFx  wShort=  0.000000 wLong=  0.200000 cFull=  0.222036 cShort=  0.000000 cLong=  0.777964
 DFx  wShort=  0.000000 wLong=  0.200000 cFull=  0.000000 cShort=  0.000000 cLong=  1.000000
 NAtoms=   14 NActive=   14 NUniq=   14 SFac= 1.00D+00 NAtFMM=   60 NAOKFM=F Big=F
 Integral buffers will be    131072 words long.
 Raffenetti 2 integral format.
 Two-electron integral symmetry is turned on.
 R6Disp:  Grimme-D2 Dispersion energy=       -0.0058565651 Hartrees.
 Nuclear repulsion after empirical dispersion term =      300.9650844705 Hartrees.
 Leave Link  301 at Mon May 26 11:48:58 2025, MaxMem=  3758096384 cpu:               0.4 elap:               0.1
 (Enter /gpfs/fs1/soft/bebop/software/custom-built/gaussian/16-c.02/g16/l302.exe)
 NPDir=0 NMtPBC=     1 NCelOv=     1 NCel=       1 NClECP=     1 NCelD=      1
         NCelK=      1 NCelE2=     1 NClLst=     1 CellRange=     0.0.
 One-electron integrals computed using PRISM.
 One-electron integral symmetry used in STVInt
   1 Symmetry operations used in ECPInt.
 ECPInt:  NShTT=    2016 NPrTT=    7252 LenC2=    2013 LenP2D=    6042.
 LDataN:  DoStor=T MaxTD1= 4 Len=   56
 NBasis=   133 RedAO= T EigKep=  8.57D-04  NBF=   133
 NBsUse=   133 1.00D-06 EigRej= -1.00D+00 NBFU=   133
 Precomputing XC quadrature grid using
 IXCGrd= 4 IRadAn=           5 IRanWt=          -1 IRanGd=           0 AccXCQ= 0.00D+00.
 Generated NRdTot=       0 NPtTot=           0 NUsed=           0 NTot=          32
 NSgBfM=   140   140   140   140   140 MxSgAt=    14 MxSgA2=    14.
 Leave Link  302 at Mon May 26 11:48:58 2025, MaxMem=  3758096384 cpu:               0.9 elap:               0.2
 (Enter /gpfs/fs1/soft/bebop/software/custom-built/gaussian/16-c.02/g16/l303.exe)
 DipDrv:  MaxL=1.
 Leave Link  303 at Mon May 26 11:48:59 2025, MaxMem=  3758096384 cpu:               0.2 elap:               0.1
 (Enter /gpfs/fs1/soft/bebop/software/custom-built/gaussian/16-c.02/g16/l401.exe)
 ExpMin= 1.22D-01 ExpMax= 2.27D+03 ExpMxC= 3.41D+02 IAcc=3 IRadAn=         5 AccDes= 0.00D+00
 Harris functional with IExCor= 4639 and IRadAn=       5 diagonalized for initial guess.
 HarFok:  IExCor= 4639 AccDes= 0.00D+00 IRadAn=         5 IDoV= 1 UseB2=F ITyADJ=14
 ICtDFT=  3500011 ScaDFX=  1.000000  1.000000  1.000000  1.000000
 FoFCou: FMM=F IPFlag=           0 FMFlag=      100000 FMFlg1=           0
         NFxFlg=           0 DoJE=T BraDBF=F KetDBF=T FulRan=T
         wScrn=  0.000000 ICntrl=       500 IOpCl=  0 I1Cent=   200000004 NGrid=           0
         NMat0=    1 NMatS0=      1 NMatT0=    0 NMatD0=    1 NMtDS0=    0 NMtDT0=    0
 Petite list used in FoFCou.
 Harris En= -330.294252229117    
 JPrj=0 DoOrth=F DoCkMO=F.
 Initial guess <Sx>= 0.0000 <Sy>= 0.0000 <Sz>= 0.5000 <S**2>= 0.7500 S= 0.5000
 Leave Link  401 at Mon May 26 11:49:00 2025, MaxMem=  3758096384 cpu:               3.0 elap:               0.7
 (Enter /gpfs/fs1/soft/bebop/software/custom-built/gaussian/16-c.02/g16/l502.exe)
 Keep R1 and R2 ints in memory in canonical form, NReq=165843657.
 FoFCou: FMM=F IPFlag=           0 FMFlag=           0 FMFlg1=           0
         NFxFlg=           0 DoJE=F BraDBF=F KetDBF=F FulRan=T
         wScrn=  0.000000 ICntrl=       600 IOpCl=  0 I1Cent=           0 NGrid=           0
         NMat0=    1 NMatS0=   8911 NMatT0=    0 NMatD0=    1 NMtDS0=    0 NMtDT0=    0
 Symmetry not used in FoFCou.
 Two-electron integral symmetry not used.
 UHF open shell SCF:
 Using DIIS extrapolation, IDIIS=  1040.
 NGot=  3758096384 LenX=  3599224722 LenY=  3599204681
 Requested convergence on RMS density matrix=1.00D-08 within  32 cycles.
 Requested convergence on MAX density matrix=1.00D-06.
 Requested convergence on             energy=1.00D-06.
 No special actions if energy rises.
 Integral accuracy reduced to 1.0D-05 until final iterations.

 Cycle   1  Pass 0  IDiag  1:
 E= -344.399098889464    
 DIIS: error= 2.82D-02 at cycle   1 NSaved=   1.
 NSaved= 1 IEnMin= 1 EnMin= -344.399098889464     IErMin= 1 ErrMin= 2.82D-02
 ErrMax= 2.82D-02  0.00D+00 EMaxC= 1.00D-01 BMatC= 9.60D-01 BMatP= 9.60D-01
 IDIUse=3 WtCom= 7.18D-01 WtEn= 2.82D-01
 Coeff-Com:  0.100D+01
 Coeff-En:   0.100D+01
 Coeff:      0.100D+01
 Gap=     0.259 Goal=   None    Shift=    0.000
 Gap=     0.369 Goal=   None    Shift=    0.000
 GapD=    0.259 DampG=1.000 DampE=0.500 DampFc=0.5000 IDamp=-1.
 Damping current iteration by 5.00D-01
 RMSDP=6.47D-03 MaxDP=1.77D-01              OVMax= 3.06D-01

 Cycle   2  Pass 0  IDiag  1:
 E= -344.446489275390     Delta-E=       -0.047390385926 Rises=F Damp=T
 DIIS: error= 1.40D-02 at cycle   2 NSaved=   2.
 NSaved= 2 IEnMin= 2 EnMin= -344.446489275390     IErMin= 2 ErrMin= 1.40D-02
 ErrMax= 1.40D-02  0.00D+00 EMaxC= 1.00D-01 BMatC= 1.43D-01 BMatP= 9.60D-01
 IDIUse=3 WtCom= 8.60D-01 WtEn= 1.40D-01
 Coeff-Com:  0.900D-02 0.991D+00
 Coeff-En:   0.205D+00 0.795D+00
 Coeff:      0.364D-01 0.964D+00
 Gap=     0.255 Goal=   None    Shift=    0.000
 Gap=     0.355 Goal=   None    Shift=    0.000
 RMSDP=2.34D-03 MaxDP=6.17D-02 DE=-4.74D-02 OVMax= 2.21D-01

 Cycle   3  Pass 0  IDiag  1:
 E= -344.518909788680     Delta-E=       -0.072420513290 Rises=F Damp=F
 DIIS: error= 6.18D-03 at cycle   3 NSaved=   3.
 NSaved= 3 IEnMin= 3 EnMin= -344.518909788680     IErMin= 3 ErrMin= 6.18D-03
 ErrMax= 6.18D-03  0.00D+00 EMaxC= 1.00D-01 BMatC= 5.34D-02 BMatP= 1.43D-01
 IDIUse=3 WtCom= 9.38D-01 WtEn= 6.18D-02
 Coeff-Com: -0.149D+00 0.386D+00 0.763D+00
 Coeff-En:   0.000D+00 0.000D+00 0.100D+01
 Coeff:     -0.140D+00 0.362D+00 0.778D+00
 Gap=     0.249 Goal=   None    Shift=    0.000
 Gap=     0.289 Goal=   None    Shift=    0.000
 RMSDP=1.00D-03 MaxDP=3.31D-02 DE=-7.24D-02 OVMax= 4.12D-02

 Cycle   4  Pass 0  IDiag  1:
 E= -344.529301671054     Delta-E=       -0.010391882374 Rises=F Damp=F
 DIIS: error= 4.54D-03 at cycle   4 NSaved=   4.
 NSaved= 4 IEnMin= 4 EnMin= -344.529301671054     IErMin= 4 ErrMin= 4.54D-03
 ErrMax= 4.54D-03  0.00D+00 EMaxC= 1.00D-01 BMatC= 1.25D-02 BMatP= 5.34D-02
 IDIUse=3 WtCom= 9.55D-01 WtEn= 4.54D-02
 Coeff-Com: -0.786D-01 0.155D+00 0.456D+00 0.468D+00
 Coeff-En:   0.000D+00 0.000D+00 0.161D-01 0.984D+00
 Coeff:     -0.750D-01 0.148D+00 0.436D+00 0.492D+00
 Gap=     0.252 Goal=   None    Shift=    0.000
 Gap=     0.283 Goal=   None    Shift=    0.000
 RMSDP=3.96D-04 MaxDP=1.71D-02 DE=-1.04D-02 OVMax= 1.53D-02

 Cycle   5  Pass 0  IDiag  1:
 E= -344.532225824961     Delta-E=       -0.002924153908 Rises=F Damp=F
 DIIS: error= 1.02D-03 at cycle   5 NSaved=   5.
 NSaved= 5 IEnMin= 5 EnMin= -344.532225824961     IErMin= 5 ErrMin= 1.02D-03
 ErrMax= 1.02D-03  0.00D+00 EMaxC= 1.00D-01 BMatC= 1.17D-03 BMatP= 1.25D-02
 IDIUse=3 WtCom= 9.90D-01 WtEn= 1.02D-02
 Coeff-Com: -0.130D-01 0.148D-01 0.839D-01 0.201D+00 0.713D+00
 Coeff-En:   0.000D+00 0.000D+00 0.000D+00 0.000D+00 0.100D+01
 Coeff:     -0.128D-01 0.147D-01 0.830D-01 0.199D+00 0.716D+00
 Gap=     0.258 Goal=   None    Shift=    0.000
 Gap=     0.285 Goal=   None    Shift=    0.000
 RMSDP=2.50D-04 MaxDP=8.16D-03 DE=-2.92D-03 OVMax= 1.69D-02

 Cycle   6  Pass 0  IDiag  1:
 E= -344.533254835985     Delta-E=       -0.001029011024 Rises=F Damp=F
 DIIS: error= 1.00D-03 at cycle   6 NSaved=   6.
 NSaved= 6 IEnMin= 6 EnMin= -344.533254835985     IErMin= 6 ErrMin= 1.00D-03
 ErrMax= 1.00D-03  0.00D+00 EMaxC= 1.00D-01 BMatC= 5.45D-04 BMatP= 1.17D-03
 IDIUse=3 WtCom= 9.90D-01 WtEn= 1.00D-02
 Coeff-Com:  0.441D-01-0.860D-01-0.250D+00-0.263D+00 0.167D+00 0.139D+01
 Coeff-En:   0.000D+00 0.000D+00 0.000D+00 0.000D+00 0.000D+00 0.100D+01
 Coeff:      0.437D-01-0.852D-01-0.248D+00-0.260D+00 0.165D+00 0.138D+01
 Gap=     0.264 Goal=   None    Shift=    0.000
 Gap=     0.292 Goal=   None    Shift=    0.000
 RMSDP=4.31D-04 MaxDP=1.20D-02 DE=-1.03D-03 OVMax= 3.20D-02

 Cycle   7  Pass 0  IDiag  1:
 E= -344.534613126525     Delta-E=       -0.001358290540 Rises=F Damp=F
 DIIS: error= 5.64D-04 at cycle   7 NSaved=   7.
 NSaved= 7 IEnMin= 7 EnMin= -344.534613126525     IErMin= 7 ErrMin= 5.64D-04
 ErrMax= 5.64D-04  0.00D+00 EMaxC= 1.00D-01 BMatC= 1.91D-04 BMatP= 5.45D-04
 IDIUse=3 WtCom= 9.94D-01 WtEn= 5.64D-03
 Coeff-Com:  0.835D-02-0.113D-01-0.623D-01-0.105D+00-0.259D+00 0.210D+00
 Coeff-Com:  0.122D+01
 Coeff-En:   0.000D+00 0.000D+00 0.000D+00 0.000D+00 0.000D+00 0.000D+00
 Coeff-En:   0.100D+01
 Coeff:      0.830D-02-0.113D-01-0.620D-01-0.104D+00-0.258D+00 0.209D+00
 Coeff:      0.122D+01
 Gap=     0.269 Goal=   None    Shift=    0.000
 Gap=     0.296 Goal=   None    Shift=    0.000
 RMSDP=2.93D-04 MaxDP=8.37D-03 DE=-1.36D-03 OVMax= 2.46D-02

 Cycle   8  Pass 0  IDiag  1:
 E= -344.535186158232     Delta-E=       -0.000573031707 Rises=F Damp=F
 DIIS: error= 3.68D-04 at cycle   8 NSaved=   8.
 NSaved= 8 IEnMin= 8 EnMin= -344.535186158232     IErMin= 8 ErrMin= 3.68D-04
 ErrMax= 3.68D-04  0.00D+00 EMaxC= 1.00D-01 BMatC= 7.47D-05 BMatP= 1.91D-04
 IDIUse=3 WtCom= 9.96D-01 WtEn= 3.68D-03
 Coeff-Com: -0.144D-01 0.293D-01 0.733D-01 0.677D-01-0.125D+00-0.439D+00
 Coeff-Com:  0.267D+00 0.114D+01
 Coeff-En:   0.000D+00 0.000D+00 0.000D+00 0.000D+00 0.000D+00 0.000D+00
 Coeff-En:   0.000D+00 0.100D+01
 Coeff:     -0.144D-01 0.292D-01 0.730D-01 0.674D-01-0.125D+00-0.437D+00
 Coeff:      0.266D+00 0.114D+01
 Gap=     0.270 Goal=   None    Shift=    0.000
 Gap=     0.298 Goal=   None    Shift=    0.000
 RMSDP=1.88D-04 MaxDP=5.44D-03 DE=-5.73D-04 OVMax= 1.60D-02

 Cycle   9  Pass 0  IDiag  1:
 E= -344.535407896131     Delta-E=       -0.000221737900 Rises=F Damp=F
 DIIS: error= 3.24D-04 at cycle   9 NSaved=   9.
 NSaved= 9 IEnMin= 9 EnMin= -344.535407896131     IErMin= 9 ErrMin= 3.24D-04
 ErrMax= 3.24D-04  0.00D+00 EMaxC= 1.00D-01 BMatC= 3.20D-05 BMatP= 7.47D-05
 IDIUse=3 WtCom= 9.97D-01 WtEn= 3.24D-03
 Coeff-Com: -0.553D-02 0.926D-02 0.385D-01 0.526D-01 0.717D-01-0.152D+00
 Coeff-Com: -0.467D+00 0.364D+00 0.109D+01
 Coeff-En:   0.000D+00 0.000D+00 0.000D+00 0.000D+00 0.000D+00 0.000D+00
 Coeff-En:   0.000D+00 0.000D+00 0.100D+01
 Coeff:     -0.552D-02 0.923D-02 0.384D-01 0.525D-01 0.715D-01-0.152D+00
 Coeff:     -0.466D+00 0.363D+00 0.109D+01
 Gap=     0.271 Goal=   None    Shift=    0.000
 Gap=     0.299 Goal=   None    Shift=    0.000
 RMSDP=1.15D-04 MaxDP=3.06D-03 DE=-2.22D-04 OVMax= 9.56D-03

 Failed to achieve initial convergence to 1.0D-08 in 10 cycles.
 Switch to full accuracy anyway.
 Cycle  10  Pass 1  IDiag  1:
 E= -344.535514527888     Delta-E=       -0.000106631756 Rises=F Damp=F
 DIIS: error= 1.26D-04 at cycle   1 NSaved=   1.
 NSaved= 1 IEnMin= 1 EnMin= -344.535514527888     IErMin= 1 ErrMin= 1.26D-04
 ErrMax= 1.26D-04  0.00D+00 EMaxC= 1.00D-01 BMatC= 1.04D-05 BMatP= 1.04D-05
 IDIUse=3 WtCom= 9.99D-01 WtEn= 1.26D-03
 Coeff-Com:  0.100D+01
 Coeff-En:   0.100D+01
 Coeff:      0.100D+01
 Gap=     0.272 Goal=   None    Shift=    0.000
 Gap=     0.299 Goal=   None    Shift=    0.000
 RMSDP=1.15D-04 MaxDP=3.06D-03 DE=-1.07D-04 OVMax= 2.61D-03

 Cycle  11  Pass 1  IDiag  1:
 E= -344.535527186105     Delta-E=       -0.000012658218 Rises=F Damp=F
 DIIS: error= 1.55D-04 at cycle   2 NSaved=   2.
 NSaved= 2 IEnMin= 2 EnMin= -344.535527186105     IErMin= 1 ErrMin= 1.26D-04
 ErrMax= 1.55D-04  0.00D+00 EMaxC= 1.00D-01 BMatC= 8.74D-06 BMatP= 1.04D-05
 IDIUse=3 WtCom= 9.98D-01 WtEn= 1.55D-03
 Coeff-Com:  0.450D+00 0.550D+00
 Coeff-En:   0.000D+00 0.100D+01
 Coeff:      0.450D+00 0.550D+00
 Gap=     0.272 Goal=   None    Shift=    0.000
 Gap=     0.300 Goal=   None    Shift=    0.000
 RMSDP=1.50D-05 MaxDP=5.07D-04 DE=-1.27D-05 OVMax= 1.32D-03

 Cycle  12  Pass 1  IDiag  1:
 E= -344.535532812538     Delta-E=       -0.000005626432 Rises=F Damp=F
 DIIS: error= 8.06D-05 at cycle   3 NSaved=   3.
 NSaved= 3 IEnMin= 3 EnMin= -344.535532812538     IErMin= 3 ErrMin= 8.06D-05
 ErrMax= 8.06D-05  0.00D+00 EMaxC= 1.00D-01 BMatC= 3.23D-06 BMatP= 8.74D-06
 IDIUse=1 WtCom= 1.00D+00 WtEn= 0.00D+00
 Coeff-Com: -0.714D+00-0.162D+00 0.188D+01
 Coeff:     -0.714D+00-0.162D+00 0.188D+01
 Gap=     0.272 Goal=   None    Shift=    0.000
 Gap=     0.300 Goal=   None    Shift=    0.000
 RMSDP=4.37D-05 MaxDP=1.37D-03 DE=-5.63D-06 OVMax= 3.39D-03

 Cycle  13  Pass 1  IDiag  1:
 E= -344.535544376818     Delta-E=       -0.000011564280 Rises=F Damp=F
 DIIS: error= 4.72D-05 at cycle   4 NSaved=   4.
 NSaved= 4 IEnMin= 4 EnMin= -344.535544376818     IErMin= 4 ErrMin= 4.72D-05
 ErrMax= 4.72D-05  0.00D+00 EMaxC= 1.00D-01 BMatC= 1.44D-06 BMatP= 3.23D-06
 IDIUse=1 WtCom= 1.00D+00 WtEn= 0.00D+00
 Coeff-Com: -0.513D+00-0.283D+00 0.892D+00 0.904D+00
 Coeff:     -0.513D+00-0.283D+00 0.892D+00 0.904D+00
 Gap=     0.272 Goal=   None    Shift=    0.000
 Gap=     0.300 Goal=   None    Shift=    0.000
 RMSDP=2.55D-05 MaxDP=7.41D-04 DE=-1.16D-05 OVMax= 2.20D-03

 Cycle  14  Pass 1  IDiag  1:
 E= -344.535548139527     Delta-E=       -0.000003762709 Rises=F Damp=F
 DIIS: error= 2.93D-05 at cycle   5 NSaved=   5.
 NSaved= 5 IEnMin= 5 EnMin= -344.535548139527     IErMin= 5 ErrMin= 2.93D-05
 ErrMax= 2.93D-05  0.00D+00 EMaxC= 1.00D-01 BMatC= 7.23D-07 BMatP= 1.44D-06
 IDIUse=1 WtCom= 1.00D+00 WtEn= 0.00D+00
 Coeff-Com:  0.348D-01-0.861D-01-0.366D+00 0.587D+00 0.830D+00
 Coeff:      0.348D-01-0.861D-01-0.366D+00 0.587D+00 0.830D+00
 Gap=     0.272 Goal=   None    Shift=    0.000
 Gap=     0.300 Goal=   None    Shift=    0.000
 RMSDP=1.57D-05 MaxDP=4.61D-04 DE=-3.76D-06 OVMax= 1.51D-03

 Cycle  15  Pass 1  IDiag  1:
 E= -344.535549470403     Delta-E=       -0.000001330876 Rises=F Damp=F
 DIIS: error= 1.82D-05 at cycle   6 NSaved=   6.
 NSaved= 6 IEnMin= 6 EnMin= -344.535549470403     IErMin= 6 ErrMin= 1.82D-05
 ErrMax= 1.82D-05  0.00D+00 EMaxC= 1.00D-01 BMatC= 1.77D-07 BMatP= 7.23D-07
 IDIUse=1 WtCom= 1.00D+00 WtEn= 0.00D+00
 Coeff-Com:  0.187D+00 0.703D-01-0.440D+00-0.631D-01 0.263D+00 0.983D+00
 Coeff:      0.187D+00 0.703D-01-0.440D+00-0.631D-01 0.263D+00 0.983D+00
 Gap=     0.272 Goal=   None    Shift=    0.000
 Gap=     0.300 Goal=   None    Shift=    0.000
 RMSDP=7.83D-06 MaxDP=2.42D-04 DE=-1.33D-06 OVMax= 7.79D-04

 Cycle  16  Pass 1  IDiag  1:
 E= -344.535549872662     Delta-E=       -0.000000402259 Rises=F Damp=F
 DIIS: error= 1.05D-05 at cycle   7 NSaved=   7.
 NSaved= 7 IEnMin= 7 EnMin= -344.535549872662     IErMin= 7 ErrMin= 1.05D-05
 ErrMax= 1.05D-05  0.00D+00 EMaxC= 1.00D-01 BMatC= 5.82D-08 BMatP= 1.77D-07
 IDIUse=1 WtCom= 1.00D+00 WtEn= 0.00D+00
 Coeff-Com:  0.232D-01 0.479D-01 0.622D-01-0.260D+00-0.316D+00 0.198D+00
 Coeff-Com:  0.124D+01
 Coeff:      0.232D-01 0.479D-01 0.622D-01-0.260D+00-0.316D+00 0.198D+00
 Coeff:      0.124D+01
 Gap=     0.272 Goal=   None    Shift=    0.000
 Gap=     0.300 Goal=   None    Shift=    0.000
 RMSDP=6.54D-06 MaxDP=1.73D-04 DE=-4.02D-07 OVMax= 6.61D-04

 Cycle  17  Pass 1  IDiag  1:
 E= -344.535550048314     Delta-E=       -0.000000175651 Rises=F Damp=F
 DIIS: error= 6.23D-06 at cycle   8 NSaved=   8.
 NSaved= 8 IEnMin= 8 EnMin= -344.535550048314     IErMin= 8 ErrMin= 6.23D-06
 ErrMax= 6.23D-06  0.00D+00 EMaxC= 1.00D-01 BMatC= 2.11D-08 BMatP= 5.82D-08
 IDIUse=1 WtCom= 1.00D+00 WtEn= 0.00D+00
 Coeff-Com: -0.470D-01-0.539D-02 0.172D+00-0.914D-01-0.228D+00-0.235D+00
 Coeff-Com:  0.571D+00 0.864D+00
 Coeff:     -0.470D-01-0.539D-02 0.172D+00-0.914D-01-0.228D+00-0.235D+00
 Coeff:      0.571D+00 0.864D+00
 Gap=     0.272 Goal=   None    Shift=    0.000
 Gap=     0.300 Goal=   None    Shift=    0.000
 RMSDP=2.76D-06 MaxDP=6.01D-05 DE=-1.76D-07 OVMax= 2.35D-04

 Cycle  18  Pass 1  IDiag  1:
 E= -344.535550078662     Delta-E=       -0.000000030348 Rises=F Damp=F
 DIIS: error= 1.65D-06 at cycle   9 NSaved=   9.
 NSaved= 9 IEnMin= 9 EnMin= -344.535550078662     IErMin= 9 ErrMin= 1.65D-06
 ErrMax= 1.65D-06  0.00D+00 EMaxC= 1.00D-01 BMatC= 3.35D-09 BMatP= 2.11D-08
 IDIUse=1 WtCom= 1.00D+00 WtEn= 0.00D+00
 Coeff-Com: -0.196D-01-0.137D-01 0.510D-01 0.938D-02-0.242D-01-0.959D-01
 Coeff-Com: -0.927D-02 0.230D+00 0.872D+00
 Coeff:     -0.196D-01-0.137D-01 0.510D-01 0.938D-02-0.242D-01-0.959D-01
 Coeff:     -0.927D-02 0.230D+00 0.872D+00
 Gap=     0.272 Goal=   None    Shift=    0.000
 Gap=     0.300 Goal=   None    Shift=    0.000
 RMSDP=8.87D-07 MaxDP=2.47D-05 DE=-3.03D-08 OVMax= 7.40D-05

 Cycle  19  Pass 1  IDiag  1:
 E= -344.535550084030     Delta-E=       -0.000000005368 Rises=F Damp=F
 DIIS: error= 1.11D-06 at cycle  10 NSaved=  10.
 NSaved=10 IEnMin=10 EnMin= -344.535550084030     IErMin=10 ErrMin= 1.11D-06
 ErrMax= 1.11D-06  0.00D+00 EMaxC= 1.00D-01 BMatC= 1.83D-09 BMatP= 3.35D-09
 IDIUse=1 WtCom= 1.00D+00 WtEn= 0.00D+00
 Coeff-Com:  0.180D-01-0.388D-02-0.623D-01 0.396D-01 0.958D-01 0.100D+00
 Coeff-Com: -0.256D+00-0.395D+00 0.247D+00 0.122D+01
 Coeff:      0.180D-01-0.388D-02-0.623D-01 0.396D-01 0.958D-01 0.100D+00
 Coeff:     -0.256D+00-0.395D+00 0.247D+00 0.122D+01
 Gap=     0.272 Goal=   None    Shift=    0.000
 Gap=     0.300 Goal=   None    Shift=    0.000
 RMSDP=8.31D-07 MaxDP=2.06D-05 DE=-5.37D-09 OVMax= 6.32D-05

 Cycle  20  Pass 1  IDiag  1:
 E= -344.535550087635     Delta-E=       -0.000000003605 Rises=F Damp=F
 DIIS: error= 6.01D-07 at cycle  11 NSaved=  11.
 NSaved=11 IEnMin=11 EnMin= -344.535550087635     IErMin=11 ErrMin= 6.01D-07
 ErrMax= 6.01D-07  0.00D+00 EMaxC= 1.00D-01 BMatC= 4.29D-10 BMatP= 1.83D-09
 IDIUse=1 WtCom= 1.00D+00 WtEn= 0.00D+00
 Coeff-Com:  0.840D-02 0.147D-02-0.229D-01 0.406D-02 0.236D-01 0.489D-01
 Coeff-Com: -0.447D-01-0.160D+00-0.121D+00 0.904D-01 0.117D+01
 Coeff:      0.840D-02 0.147D-02-0.229D-01 0.406D-02 0.236D-01 0.489D-01
 Coeff:     -0.447D-01-0.160D+00-0.121D+00 0.904D-01 0.117D+01
 Gap=     0.272 Goal=   None    Shift=    0.000
 Gap=     0.300 Goal=   None    Shift=    0.000
 RMSDP=4.98D-07 MaxDP=1.09D-05 DE=-3.60D-09 OVMax= 3.77D-05

 Cycle  21  Pass 1  IDiag  1:
 E= -344.535550088855     Delta-E=       -0.000000001220 Rises=F Damp=F
 DIIS: error= 4.43D-07 at cycle  12 NSaved=  12.
 NSaved=12 IEnMin=12 EnMin= -344.535550088855     IErMin=12 ErrMin= 4.43D-07
 ErrMax= 4.43D-07  0.00D+00 EMaxC= 1.00D-01 BMatC= 1.75D-10 BMatP= 4.29D-10
 IDIUse=1 WtCom= 1.00D+00 WtEn= 0.00D+00
 Coeff-Com: -0.545D-02 0.107D-02 0.199D-01-0.137D-01-0.305D-01-0.284D-01
 Coeff-Com:  0.872D-01 0.106D+00-0.861D-01-0.487D+00 0.255D+00 0.118D+01
 Coeff:     -0.545D-02 0.107D-02 0.199D-01-0.137D-01-0.305D-01-0.284D-01
 Coeff:      0.872D-01 0.106D+00-0.861D-01-0.487D+00 0.255D+00 0.118D+01
 Gap=     0.272 Goal=   None    Shift=    0.000
 Gap=     0.300 Goal=   None    Shift=    0.000
 RMSDP=3.42D-07 MaxDP=8.59D-06 DE=-1.22D-09 OVMax= 2.30D-05

 Cycle  22  Pass 1  IDiag  1:
 E= -344.535550089340     Delta-E=       -0.000000000485 Rises=F Damp=F
 DIIS: error= 2.39D-07 at cycle  13 NSaved=  13.
 NSaved=13 IEnMin=13 EnMin= -344.535550089340     IErMin=13 ErrMin= 2.39D-07
 ErrMax= 2.39D-07  0.00D+00 EMaxC= 1.00D-01 BMatC= 5.18D-11 BMatP= 1.75D-10
 IDIUse=1 WtCom= 1.00D+00 WtEn= 0.00D+00
 Coeff-Com: -0.244D-02-0.440D-03 0.567D-02 0.122D-03-0.451D-02-0.149D-01
 Coeff-Com:  0.665D-02 0.364D-01 0.577D-01 0.580D-01-0.461D+00-0.188D+00
 Coeff-Com:  0.151D+01
 Coeff:     -0.244D-02-0.440D-03 0.567D-02 0.122D-03-0.451D-02-0.149D-01
 Coeff:      0.665D-02 0.364D-01 0.577D-01 0.580D-01-0.461D+00-0.188D+00
 Coeff:      0.151D+01
 Gap=     0.272 Goal=   None    Shift=    0.000
 Gap=     0.300 Goal=   None    Shift=    0.000
 RMSDP=2.05D-07 MaxDP=6.58D-06 DE=-4.85D-10 OVMax= 1.73D-05

 Cycle  23  Pass 1  IDiag  1:
 E= -344.535550089514     Delta-E=       -0.000000000175 Rises=F Damp=F
 DIIS: error= 1.37D-07 at cycle  14 NSaved=  14.
 NSaved=14 IEnMin=14 EnMin= -344.535550089514     IErMin=14 ErrMin= 1.37D-07
 ErrMax= 1.37D-07  0.00D+00 EMaxC= 1.00D-01 BMatC= 1.53D-11 BMatP= 5.18D-11
 IDIUse=1 WtCom= 1.00D+00 WtEn= 0.00D+00
 Coeff-Com:  0.191D-02-0.912D-04-0.742D-02 0.476D-02 0.114D-01 0.957D-02
 Coeff-Com: -0.290D-01-0.400D-01 0.166D-01 0.188D+00-0.803D-01-0.394D+00
 Coeff-Com: -0.838D-01 0.140D+01
 Coeff:      0.191D-02-0.912D-04-0.742D-02 0.476D-02 0.114D-01 0.957D-02
 Coeff:     -0.290D-01-0.400D-01 0.166D-01 0.188D+00-0.803D-01-0.394D+00
 Coeff:     -0.838D-01 0.140D+01
 Gap=     0.272 Goal=   None    Shift=    0.000
 Gap=     0.300 Goal=   None    Shift=    0.000
 RMSDP=1.14D-07 MaxDP=4.15D-06 DE=-1.75D-10 OVMax= 1.11D-05

 Cycle  24  Pass 1  IDiag  1:
 E= -344.535550089564     Delta-E=       -0.000000000050 Rises=F Damp=F
 DIIS: error= 7.15D-08 at cycle  15 NSaved=  15.
 NSaved=15 IEnMin=15 EnMin= -344.535550089564     IErMin=15 ErrMin= 7.15D-08
 ErrMax= 7.15D-08  0.00D+00 EMaxC= 1.00D-01 BMatC= 4.11D-12 BMatP= 1.53D-11
 IDIUse=1 WtCom= 1.00D+00 WtEn= 0.00D+00
 Coeff-Com:  0.101D-02 0.178D-03-0.308D-02 0.944D-03 0.385D-02 0.543D-02
 Coeff-Com: -0.765D-02-0.173D-01-0.167D-01 0.363D-01 0.937D-01-0.326D-01
 Coeff-Com: -0.426D+00 0.355D+00 0.101D+01
 Coeff:      0.101D-02 0.178D-03-0.308D-02 0.944D-03 0.385D-02 0.543D-02
 Coeff:     -0.765D-02-0.173D-01-0.167D-01 0.363D-01 0.937D-01-0.326D-01
 Coeff:     -0.426D+00 0.355D+00 0.101D+01
 Gap=     0.272 Goal=   None    Shift=    0.000
 Gap=     0.300 Goal=   None    Shift=    0.000
 RMSDP=4.55D-08 MaxDP=1.62D-06 DE=-4.96D-11 OVMax= 4.26D-06

 Cycle  25  Pass 1  IDiag  1:
 E= -344.535550089574     Delta-E=       -0.000000000010 Rises=F Damp=F
 DIIS: error= 4.41D-08 at cycle  16 NSaved=  16.
 NSaved=16 IEnMin=16 EnMin= -344.535550089574     IErMin=16 ErrMin= 4.41D-08
 ErrMax= 4.41D-08  0.00D+00 EMaxC= 1.00D-01 BMatC= 8.68D-13 BMatP= 4.11D-12
 IDIUse=1 WtCom= 1.00D+00 WtEn= 0.00D+00
 Coeff-Com: -0.577D-03 0.329D-04 0.213D-02-0.128D-02-0.325D-02-0.310D-02
 Coeff-Com:  0.819D-02 0.133D-01-0.657D-02-0.495D-01 0.940D-02 0.118D+00
 Coeff-Com:  0.410D-01-0.411D+00-0.284D-01 0.131D+01
 Coeff:     -0.577D-03 0.329D-04 0.213D-02-0.128D-02-0.325D-02-0.310D-02
 Coeff:      0.819D-02 0.133D-01-0.657D-02-0.495D-01 0.940D-02 0.118D+00
 Coeff:      0.410D-01-0.411D+00-0.284D-01 0.131D+01
 Gap=     0.272 Goal=   None    Shift=    0.000
 Gap=     0.300 Goal=   None    Shift=    0.000
 RMSDP=2.47D-08 MaxDP=8.38D-07 DE=-1.02D-11 OVMax= 2.23D-06

 Cycle  26  Pass 1  IDiag  1:
 E= -344.535550089576     Delta-E=       -0.000000000002 Rises=F Damp=F
 DIIS: error= 2.14D-08 at cycle  17 NSaved=  17.
 NSaved=17 IEnMin=17 EnMin= -344.535550089576     IErMin=17 ErrMin= 2.14D-08
 ErrMax= 2.14D-08  0.00D+00 EMaxC= 1.00D-01 BMatC= 1.83D-13 BMatP= 8.68D-13
 IDIUse=1 WtCom= 1.00D+00 WtEn= 0.00D+00
 Coeff-Com: -0.115D-03-0.327D-04 0.288D-03 0.203D-04-0.342D-03-0.625D-03
 Coeff-Com:  0.102D-03 0.230D-02 0.292D-02 0.863D-03-0.214D-01-0.548D-02
 Coeff-Com:  0.786D-01-0.182D-01-0.199D+00-0.176D+00 0.134D+01
 Coeff:     -0.115D-03-0.327D-04 0.288D-03 0.203D-04-0.342D-03-0.625D-03
 Coeff:      0.102D-03 0.230D-02 0.292D-02 0.863D-03-0.214D-01-0.548D-02
 Coeff:      0.786D-01-0.182D-01-0.199D+00-0.176D+00 0.134D+01
 Gap=     0.272 Goal=   None    Shift=    0.000
 Gap=     0.300 Goal=   None    Shift=    0.000
 RMSDP=1.10D-08 MaxDP=2.88D-07 DE=-1.82D-12 OVMax= 7.56D-07

 Cycle  27  Pass 1  IDiag  1:
 E= -344.535550089577     Delta-E=       -0.000000000001 Rises=F Damp=F
 DIIS: error= 9.84D-09 at cycle  18 NSaved=  18.
 NSaved=18 IEnMin=18 EnMin= -344.535550089577     IErMin=18 ErrMin= 9.84D-09
 ErrMax= 9.84D-09  0.00D+00 EMaxC= 1.00D-01 BMatC= 6.08D-14 BMatP= 1.83D-13
 IDIUse=1 WtCom= 1.00D+00 WtEn= 0.00D+00
 Coeff-Com:  0.115D-03-0.786D-05-0.427D-03 0.263D-03 0.652D-03 0.641D-03
 Coeff-Com: -0.184D-02-0.219D-02 0.101D-02 0.108D-01-0.395D-02-0.236D-01
 Coeff-Com: -0.361D-02 0.788D-01-0.399D-03-0.266D+00 0.475D-01 0.116D+01
 Coeff:      0.115D-03-0.786D-05-0.427D-03 0.263D-03 0.652D-03 0.641D-03
 Coeff:     -0.184D-02-0.219D-02 0.101D-02 0.108D-01-0.395D-02-0.236D-01
 Coeff:     -0.361D-02 0.788D-01-0.399D-03-0.266D+00 0.475D-01 0.116D+01
 Gap=     0.272 Goal=   None    Shift=    0.000
 Gap=     0.300 Goal=   None    Shift=    0.000
 RMSDP=5.17D-09 MaxDP=1.45D-07 DE=-6.82D-13 OVMax= 3.60D-07

 SCF Done:  E(UwB97XD) =  -344.535550090     A.U. after   27 cycles
            NFock= 27  Conv=0.52D-08     -V/T= 2.0102
 <Sx>= 0.0000 <Sy>= 0.0000 <Sz>= 0.5000 <S**2>= 0.9320 S= 0.5872
 <L.S>=  0.00000000000    
 KE= 3.410409768352D+02 PE=-1.406567576111D+03 EE= 4.200259647160D+02
 Annihilation of the first spin contaminant:
 S**2 before annihilation     0.9320,   after     0.7663
 Leave Link  502 at Mon May 26 11:49:20 2025, MaxMem=  3758096384 cpu:              97.5 elap:              19.9
 (Enter /gpfs/fs1/soft/bebop/software/custom-built/gaussian/16-c.02/g16/l508.exe)
 QCSCF skips out because SCF is already converged.
 Leave Link  508 at Mon May 26 11:49:21 2025, MaxMem=  3758096384 cpu:               0.0 elap:               0.0
 (Enter /gpfs/fs1/soft/bebop/software/custom-built/gaussian/16-c.02/g16/l601.exe)
 Copying SCF densities to generalized density rwf, IOpCl= 1 IROHF=0.

 **********************************************************************

            Population analysis using the SCF Density.

 **********************************************************************

 Orbital symmetries:
 Alpha Orbitals:
       Occupied  (A) (A) (A) (A) (A) (A) (A) (A) (A) (A) (A) (A)
                 (A) (A) (A) (A) (A) (A) (A) (A) (A) (A) (A) (A)
                 (A) (A) (A)
       Virtual   (A) (A) (A) (A) (A) (A) (A) (A) (A) (A) (A) (A)
                 (A) (A) (A) (A) (A) (A) (A) (A) (A) (A) (A) (A)
                 (A) (A) (A) (A) (A) (A) (A) (A) (A) (A) (A) (A)
                 (A) (A) (A) (A) (A) (A) (A) (A) (A) (A) (A) (A)
                 (A) (A) (A) (A) (A) (A) (A) (A) (A) (A) (A) (A)
                 (A) (A) (A) (A) (A) (A) (A) (A) (A) (A) (A) (A)
                 (A) (A) (A) (A) (A) (A) (A) (A) (A) (A) (A) (A)
                 (A) (A) (A) (A) (A) (A) (A) (A) (A) (A) (A) (A)
                 (A) (A) (A) (A) (A) (A) (A) (A) (A) (A)
 Beta  Orbitals:
       Occupied  (A) (A) (A) (A) (A) (A) (A) (A) (A) (A) (A) (A)
                 (A) (A) (A) (A) (A) (A) (A) (A) (A) (A) (A) (A)
                 (A) (A)
       Virtual   (A) (A) (A) (A) (A) (A) (A) (A) (A) (A) (A) (A)
                 (A) (A) (A) (A) (A) (A) (A) (A) (A) (A) (A) (A)
                 (A) (A) (A) (A) (A) (A) (A) (A) (A) (A) (A) (A)
                 (A) (A) (A) (A) (A) (A) (A) (A) (A) (A) (A) (A)
                 (A) (A) (A) (A) (A) (A) (A) (A) (A) (A) (A) (A)
                 (A) (A) (A) (A) (A) (A) (A) (A) (A) (A) (A) (A)
                 (A) (A) (A) (A) (A) (A) (A) (A) (A) (A) (A) (A)
                 (A) (A) (A) (A) (A) (A) (A) (A) (A) (A) (A) (A)
                 (A) (A) (A) (A) (A) (A) (A) (A) (A) (A) (A)
 The electronic state is 2-A.
 Alpha  occ. eigenvalues --  -19.29641 -19.26631 -10.36450 -10.35030 -10.32467
 Alpha  occ. eigenvalues --  -10.32362 -10.31519  -1.13098  -1.02846  -0.90697
 Alpha  occ. eigenvalues --   -0.80566  -0.77953  -0.65796  -0.62688  -0.61708
 Alpha  occ. eigenvalues --   -0.57989  -0.53427  -0.50532  -0.48289  -0.47828
 Alpha  occ. eigenvalues --   -0.46369  -0.43550  -0.42577  -0.40233  -0.35871
 Alpha  occ. eigenvalues --   -0.31781  -0.26346
 Alpha virt. eigenvalues --    0.00888   0.07655   0.14591   0.16698   0.18096
 Alpha virt. eigenvalues --    0.18772   0.20547   0.20847   0.21760   0.24701
 Alpha virt. eigenvalues --    0.26988   0.28725   0.31295   0.32410   0.38670
 Alpha virt. eigenvalues --    0.48589   0.54509   0.55141   0.55972   0.57011
 Alpha virt. eigenvalues --    0.60703   0.61460   0.64481   0.65138   0.67237
 Alpha virt. eigenvalues --    0.67840   0.69908   0.71720   0.72516   0.74100
 Alpha virt. eigenvalues --    0.74801   0.75449   0.76122   0.77533   0.78285
 Alpha virt. eigenvalues --    0.79095   0.85750   0.93817   0.94788   1.02103
 Alpha virt. eigenvalues --    1.04648   1.05803   1.09768   1.15689   1.24133
 Alpha virt. eigenvalues --    1.26852   1.31218   1.32971   1.36531   1.38898
 Alpha virt. eigenvalues --    1.43150   1.43951   1.53029   1.54222   1.57080
 Alpha virt. eigenvalues --    1.61617   1.64536   1.66883   1.68925   1.69683
 Alpha virt. eigenvalues --    1.76630   1.77523   1.80052   1.83465   1.88104
 Alpha virt. eigenvalues --    1.89756   1.90344   1.92596   1.93913   1.98752
 Alpha virt. eigenvalues --    2.03875   2.05682   2.09101   2.10527   2.12215
 Alpha virt. eigenvalues --    2.14303   2.21246   2.25294   2.31239   2.31567
 Alpha virt. eigenvalues --    2.32334   2.36509   2.38588   2.43737   2.47165
 Alpha virt. eigenvalues --    2.51875   2.59367   2.63802   2.69642   2.72713
 Alpha virt. eigenvalues --    2.73807   2.78794   2.86444   2.89880   2.94492
 Alpha virt. eigenvalues --    3.00069   3.01741   3.06506   3.08575   3.12157
 Alpha virt. eigenvalues --    3.16870   3.21153   3.34640   3.35786   3.52192
 Alpha virt. eigenvalues --    3.82963
  Beta  occ. eigenvalues --  -19.29820 -19.25623 -10.36455 -10.34305 -10.32953
  Beta  occ. eigenvalues --  -10.31668 -10.31540  -1.12969  -1.00540  -0.90119
  Beta  occ. eigenvalues --   -0.79927  -0.76930  -0.65112  -0.62530  -0.60879
  Beta  occ. eigenvalues --   -0.56999  -0.52680  -0.50055  -0.48118  -0.46938
  Beta  occ. eigenvalues --   -0.45334  -0.43209  -0.40956  -0.39260  -0.34685
  Beta  occ. eigenvalues --   -0.30848
  Beta virt. eigenvalues --   -0.00814   0.03772   0.10098   0.14797   0.16917
  Beta virt. eigenvalues --    0.18510   0.19204   0.20666   0.21043   0.21946
  Beta virt. eigenvalues --    0.24956   0.27390   0.29203   0.31595   0.32878
  Beta virt. eigenvalues --    0.39233   0.48869   0.54581   0.55485   0.56686
  Beta virt. eigenvalues --    0.57425   0.60780   0.62546   0.65562   0.66010
  Beta virt. eigenvalues --    0.67674   0.68444   0.70315   0.72078   0.72691
  Beta virt. eigenvalues --    0.74486   0.74933   0.75829   0.76289   0.77825
  Beta virt. eigenvalues --    0.78564   0.79369   0.86058   0.94181   0.95110
  Beta virt. eigenvalues --    1.02876   1.05683   1.06605   1.10796   1.16443
  Beta virt. eigenvalues --    1.24601   1.27329   1.31355   1.33781   1.37423
  Beta virt. eigenvalues --    1.39319   1.44051   1.44510   1.53386   1.54355
  Beta virt. eigenvalues --    1.57322   1.61802   1.64844   1.67068   1.69451
  Beta virt. eigenvalues --    1.70123   1.76991   1.77831   1.80411   1.83704
  Beta virt. eigenvalues --    1.88996   1.90170   1.91040   1.92706   1.94199
  Beta virt. eigenvalues --    1.99434   2.04197   2.05643   2.09610   2.11391
  Beta virt. eigenvalues --    2.13071   2.14511   2.22070   2.25995   2.32137
  Beta virt. eigenvalues --    2.32757   2.32955   2.37374   2.39639   2.44011
  Beta virt. eigenvalues --    2.48135   2.52361   2.59911   2.64191   2.70025
  Beta virt. eigenvalues --    2.73208   2.75682   2.79333   2.86658   2.90034
  Beta virt. eigenvalues --    2.94706   3.01086   3.02294   3.06782   3.09212
  Beta virt. eigenvalues --    3.13254   3.17391   3.21698   3.35171   3.36734
  Beta virt. eigenvalues --    3.52149   3.84183
          Condensed to atoms (all electrons):
               1          2          3          4          5          6
     1  C    5.269700   0.280953   0.322100   0.411291  -0.130886  -0.031400
     2  C    0.280953   4.816949  -0.082477  -0.026028   0.309106   0.378995
     3  C    0.322100  -0.082477   5.068771  -0.042162   0.009593   0.009706
     4  H    0.411291  -0.026028  -0.042162   0.601530   0.002901  -0.005347
     5  C   -0.130886   0.309106   0.009593   0.002901   5.023392  -0.006150
     6  H   -0.031400   0.378995   0.009706  -0.005347  -0.006150   0.617581
     7  H   -0.004970   0.366946  -0.017099   0.000832  -0.031481  -0.024824
     8  O    0.049206  -0.060599  -0.039985  -0.002972   0.170317   0.002486
     9  H    0.016314  -0.034682   0.007564  -0.000459   0.411645  -0.004347
    10  O    0.007804   0.003585  -0.000680  -0.000041  -0.025303  -0.000124
    11  C   -0.091111  -0.022446   0.427748   0.008763   0.187609   0.005712
    12  H   -0.042627   0.004773   0.422670  -0.001921   0.007477  -0.000102
    13  H    0.009502   0.004843  -0.045554  -0.000164  -0.045911  -0.000192
    14  H   -0.001056  -0.000580   0.000189   0.000015  -0.000732  -0.000017
               7          8          9         10         11         12
     1  C   -0.004970   0.049206   0.016314   0.007804  -0.091111  -0.042627
     2  C    0.366946  -0.060599  -0.034682   0.003585  -0.022446   0.004773
     3  C   -0.017099  -0.039985   0.007564  -0.000680   0.427748   0.422670
     4  H    0.000832  -0.002972  -0.000459  -0.000041   0.008763  -0.001921
     5  C   -0.031481   0.170317   0.411645  -0.025303   0.187609   0.007477
     6  H   -0.024824   0.002486  -0.004347  -0.000124   0.005712  -0.000102
     7  H    0.634026   0.005310   0.000197  -0.000002   0.010410   0.000058
     8  O    0.005310   8.184351  -0.021710   0.056741  -0.060197   0.000465
     9  H    0.000197  -0.021710   0.611343   0.006649  -0.046857  -0.000169
    10  O   -0.000002   0.056741   0.006649   7.901838   0.005582   0.000017
    11  C    0.010410  -0.060197  -0.046857   0.005582   5.228220  -0.040567
    12  H    0.000058   0.000465  -0.000169   0.000017  -0.040567   0.604340
    13  H    0.000074   0.001912  -0.001652   0.000122   0.427445  -0.006551
    14  H    0.000001   0.002280  -0.000084   0.293251   0.000916  -0.000010
              13         14
     1  C    0.009502  -0.001056
     2  C    0.004843  -0.000580
     3  C   -0.045554   0.000189
     4  H   -0.000164   0.000015
     5  C   -0.045911  -0.000732
     6  H   -0.000192  -0.000017
     7  H    0.000074   0.000001
     8  O    0.001912   0.002280
     9  H   -0.001652  -0.000084
    10  O    0.000122   0.293251
    11  C    0.427445   0.000916
    12  H   -0.006551  -0.000010
    13  H    0.610362  -0.000009
    14  H   -0.000009   0.527912
          Atomic-Atomic Spin Densities.
               1          2          3          4          5          6
     1  C    0.731018  -0.042584  -0.016737  -0.000080  -0.025084  -0.002070
     2  C   -0.042584  -0.024339   0.007813   0.000879   0.035467   0.004081
     3  C   -0.016737   0.007813  -0.451775   0.001237  -0.000759  -0.000273
     4  H   -0.000080   0.000879   0.001237  -0.025395   0.000804   0.000087
     5  C   -0.025084   0.035467  -0.000759   0.000804  -0.002429   0.000263
     6  H   -0.002070   0.004081  -0.000273   0.000087   0.000263   0.000106
     7  H   -0.010449  -0.010196  -0.000314  -0.000980  -0.010295  -0.001471
     8  O   -0.013843   0.008606   0.011045   0.000279   0.002158  -0.000543
     9  H    0.002496  -0.001455  -0.000293  -0.000025  -0.002661   0.000015
    10  O    0.007603  -0.000912  -0.000299  -0.000066   0.000798  -0.000059
    11  C   -0.036134  -0.011270   0.005108   0.000386  -0.022604   0.000532
    12  H   -0.000553  -0.000262   0.000859  -0.000165   0.000092   0.000001
    13  H   -0.000271  -0.000170   0.000448   0.000019   0.000811   0.000004
    14  H   -0.001199   0.000122  -0.000025   0.000023   0.000081   0.000009
               7          8          9         10         11         12
     1  C   -0.010449  -0.013843   0.002496   0.007603  -0.036134  -0.000553
     2  C   -0.010196   0.008606  -0.001455  -0.000912  -0.011270  -0.000262
     3  C   -0.000314   0.011045  -0.000293  -0.000299   0.005108   0.000859
     4  H   -0.000980   0.000279  -0.000025  -0.000066   0.000386  -0.000165
     5  C   -0.010295   0.002158  -0.002661   0.000798  -0.022604   0.000092
     6  H   -0.001471  -0.000543   0.000015  -0.000059   0.000532   0.000001
     7  H    0.056609   0.000452   0.000981   0.000118   0.007413   0.000219
     8  O    0.000452  -0.086992   0.002373  -0.066678  -0.003364   0.000030
     9  H    0.000981   0.002373  -0.002261  -0.000709  -0.000136   0.000017
    10  O    0.000118  -0.066678  -0.000709   0.490200  -0.007923   0.000024
    11  C    0.007413  -0.003364  -0.000136  -0.007923   0.702738  -0.002573
    12  H    0.000219   0.000030   0.000017   0.000024  -0.002573   0.021524
    13  H   -0.000084  -0.000003   0.000010  -0.000065   0.003023   0.000022
    14  H   -0.000016   0.004634  -0.000023   0.000814   0.000856  -0.000008
              13         14
     1  C   -0.000271  -0.001199
     2  C   -0.000170   0.000122
     3  C    0.000448  -0.000025
     4  H    0.000019   0.000023
     5  C    0.000811   0.000081
     6  H    0.000004   0.000009
     7  H   -0.000084  -0.000016
     8  O   -0.000003   0.004634
     9  H    0.000010  -0.000023
    10  O   -0.000065   0.000814
    11  C    0.003023   0.000856
    12  H    0.000022  -0.000008
    13  H   -0.030789   0.000009
    14  H    0.000009  -0.013088
 Mulliken charges and spin densities:
               1          2
     1  C   -0.064819   0.592112
     2  C    0.060662  -0.034221
     3  C   -0.040384  -0.443965
     4  H    0.053761  -0.022995
     5  C    0.118423  -0.023358
     6  H    0.058021   0.000682
     7  H    0.060522   0.031987
     8  O   -0.287607  -0.141846
     9  H    0.056246  -0.001671
    10  O   -0.249441   0.422845
    11  C   -0.041226   0.636051
    12  H    0.052147   0.019226
    13  H    0.045772  -0.027036
    14  H    0.177924  -0.007811
 Sum of Mulliken charges =  -0.00000   1.00000
 Mulliken charges and spin densities with hydrogens summed into heavy atoms:
               1          2
     1  C   -0.011058   0.569116
     2  C    0.179205  -0.001552
     3  C    0.011763  -0.424739
     5  C    0.174669  -0.025029
     8  O   -0.287607  -0.141846
    10  O   -0.071518   0.415035
    11  C    0.004546   0.609015
 Electronic spatial extent (au):  <R**2>=            664.0409
 Charge=             -0.0000 electrons
 Dipole moment (field-independent basis, Debye):
    X=              1.7287    Y=             -0.1391    Z=             -0.3937  Tot=              1.7785
 Quadrupole moment (field-independent basis, Debye-Ang):
   XX=            -41.9301   YY=            -38.1364   ZZ=            -38.3215
   XY=              0.2848   XZ=              1.8684   YZ=             -0.2144
 Traceless Quadrupole moment (field-independent basis, Debye-Ang):
   XX=             -2.4675   YY=              1.3263   ZZ=              1.1412
   XY=              0.2848   XZ=              1.8684   YZ=             -0.2144
 Octapole moment (field-independent basis, Debye-Ang**2):
  XXX=            -21.3912  YYY=              3.6992  ZZZ=             -5.7356  XYY=              1.2488
  XXY=             -1.5636  XXZ=            -13.4969  XZZ=             -9.2949  YZZ=             -2.1593
  YYZ=             -0.1435  XYZ=             -0.1251
 Hexadecapole moment (field-independent basis, Debye-Ang**3):
 XXXX=           -427.4297 YYYY=           -211.1659 ZZZZ=           -157.8893 XXXY=             -2.3499
 XXXZ=             36.8078 YYYX=              8.5608 YYYZ=              2.6532 ZZZX=              5.7310
 ZZZY=              2.0425 XXYY=           -111.2730 XXZZ=            -83.2368 YYZZ=            -64.1485
 XXYZ=             -3.7627 YYXZ=             -2.1812 ZZXY=             -2.6273
 N-N= 3.009650844705D+02 E-N=-1.406567576055D+03  KE= 3.410409768352D+02
                          Isotropic Fermi Contact Couplings
        Atom                 a.u.       MegaHertz       Gauss      10(-4) cm-1
     1  C(13)              0.15183     170.68408      60.90433      56.93408
     2  C(13)             -0.00642      -7.21457      -2.57434      -2.40652
     3  C(13)             -0.11011    -123.77929     -44.16753     -41.28833
     4  H(1)              -0.00717     -32.04538     -11.43459     -10.68919
     5  C(13)              0.00483       5.42792       1.93682       1.81056
     6  H(1)               0.00062       2.75499       0.98305       0.91896
     7  H(1)               0.01152      51.47318      18.36691      17.16960
     8  O(17)              0.36552    -221.57624     -79.06391     -73.90988
     9  H(1)              -0.00049      -2.19756      -0.78415      -0.73303
    10  O(17)              0.14395     -87.25991     -31.13651     -29.10677
    11  C(13)              0.12703     142.81158      50.95872      47.63681
    12  H(1)               0.00628      28.06682      10.01494       9.36208
    13  H(1)              -0.00857     -38.30900     -13.66960     -12.77851
    14  H(1)              -0.00575     -25.69248      -9.16772      -8.57009
 --------------------------------------------------------
       Center         ----  Spin Dipole Couplings  ----
                      3XX-RR        3YY-RR        3ZZ-RR
 --------------------------------------------------------
     1   Atom        0.587125     -0.308382     -0.278742
     2   Atom        0.008758      0.007216     -0.015974
     3   Atom       -0.184844      0.179890      0.004954
     4   Atom        0.000970     -0.027223      0.026253
     5   Atom        0.016761     -0.001102     -0.015659
     6   Atom       -0.004586      0.006236     -0.001650
     7   Atom       -0.001407      0.000359      0.001049
     8   Atom       -0.690495      0.466921      0.223574
     9   Atom        0.003344     -0.000498     -0.002846
    10   Atom        1.385618     -0.761845     -0.623773
    11   Atom        0.191781     -0.264973      0.073191
    12   Atom        0.000638     -0.013623      0.012985
    13   Atom       -0.019480      0.037607     -0.018128
    14   Atom       -0.007033     -0.056025      0.063057
 --------------------------------------------------------
                        XY            XZ            YZ
 --------------------------------------------------------
     1   Atom       -0.046505      0.166641     -0.002767
     2   Atom       -0.024833     -0.007963      0.015982
     3   Atom        0.077759     -0.247187      0.045429
     4   Atom       -0.009379     -0.010144      0.030076
     5   Atom       -0.026988     -0.009725     -0.002741
     6   Atom        0.000218     -0.001546     -0.004114
     7   Atom       -0.005121      0.003595     -0.000446
     8   Atom        0.016385      0.770169     -0.145028
     9   Atom        0.003036      0.000188     -0.005702
    10   Atom       -0.505448     -0.696888      0.190354
    11   Atom       -0.150598      0.422452     -0.127076
    12   Atom       -0.009735     -0.009926      0.011083
    13   Atom       -0.004197      0.020583      0.020459
    14   Atom       -0.000531      0.038191      0.017289
 --------------------------------------------------------


 ---------------------------------------------------------------------------------
              Anisotropic Spin Dipole Couplings in Principal Axis System
 ---------------------------------------------------------------------------------

       Atom             a.u.   MegaHertz   Gauss  10(-4) cm-1        Axes

              Baa    -0.3160   -42.402   -15.130   -14.144  0.1594  0.7354 -0.6586
     1 C(13)  Bbb    -0.3044   -40.848   -14.576   -13.626 -0.1012  0.6758  0.7301
              Bcc     0.6204    83.250    29.706    27.769  0.9820 -0.0497  0.1822
 
              Baa    -0.0251    -3.372    -1.203    -1.125 -0.2300 -0.5673  0.7907
     2 C(13)  Bbb    -0.0130    -1.746    -0.623    -0.582  0.7134  0.4543  0.5335
              Bcc     0.0381     5.118     1.826     1.707 -0.6619  0.6868  0.3003
 
              Baa    -0.3694   -49.571   -17.688   -16.535  0.8144 -0.1614  0.5573
     3 C(13)  Bbb     0.1729    23.199     8.278     7.738 -0.5027  0.2835  0.8167
              Bcc     0.1965    26.373     9.410     8.797  0.2898  0.9453 -0.1498
 
              Baa    -0.0412   -21.989    -7.846    -7.335  0.1092  0.9139 -0.3910
     4 H(1)   Bbb    -0.0026    -1.373    -0.490    -0.458  0.9496  0.0204  0.3128
              Bcc     0.0438    23.362     8.336     7.793 -0.2939  0.4054  0.8656
 
              Baa    -0.0266    -3.576    -1.276    -1.193  0.5135  0.6075  0.6060
     5 C(13)  Bbb    -0.0104    -1.392    -0.497    -0.464 -0.2707 -0.5555  0.7862
              Bcc     0.0370     4.968     1.773     1.657  0.8143 -0.5678 -0.1208
 
              Baa    -0.0055    -2.930    -1.045    -0.977  0.8408  0.1653  0.5156
     6 H(1)   Bbb    -0.0026    -1.362    -0.486    -0.454 -0.5375  0.3684  0.7585
              Bcc     0.0080     4.292     1.531     1.432  0.0646  0.9149 -0.3986
 
              Baa    -0.0066    -3.514    -1.254    -1.172  0.7696  0.5463 -0.3305
     7 H(1)   Bbb     0.0004     0.209     0.074     0.070 -0.0738  0.5902  0.8039
              Bcc     0.0062     3.305     1.179     1.103  0.6342 -0.5943  0.4945
 
              Baa    -1.1337    82.032    29.271    27.363  0.8660 -0.0539 -0.4972
     8 O(17)  Bbb     0.4154   -30.055   -10.724   -10.025  0.2567  0.9011  0.3494
              Bcc     0.7183   -51.977   -18.547   -17.338  0.4292 -0.4302  0.7942
 
              Baa    -0.0079    -4.208    -1.502    -1.404 -0.1873  0.6472  0.7390
     9 H(1)   Bbb     0.0017     0.926     0.331     0.309  0.7241 -0.4173  0.5490
              Bcc     0.0062     3.282     1.171     1.095  0.6637  0.6380 -0.3905
 
              Baa    -0.8957    64.813    23.127    21.619  0.0304  0.8538 -0.5197
    10 O(17)  Bbb    -0.8251    59.702    21.303    19.914  0.3615  0.4754  0.8021
              Bcc     1.7208  -124.515   -44.430   -41.534  0.9319 -0.2123 -0.2942
 
              Baa    -0.3102   -41.621   -14.851   -13.883  0.2786  0.9603  0.0113
    11 C(13)  Bbb    -0.2936   -39.399   -14.059   -13.142 -0.6165  0.1698  0.7688
              Bcc     0.6038    81.019    28.910    27.025  0.7364 -0.2212  0.6393
 
              Baa    -0.0197   -10.521    -3.754    -3.509  0.3372  0.9180 -0.2088
    12 H(1)   Bbb    -0.0043    -2.319    -0.827    -0.774  0.8058 -0.1668  0.5682
              Bcc     0.0241    12.840     4.582     4.283 -0.4868  0.3598  0.7960
 
              Baa    -0.0432   -23.061    -8.229    -7.692 -0.6611 -0.2162  0.7185
    13 H(1)   Bbb    -0.0012    -0.635    -0.227    -0.212  0.7491 -0.2438  0.6159
              Bcc     0.0444    23.697     8.456     7.904  0.0420  0.9454  0.3231
 
              Baa    -0.0593   -31.659   -11.297   -10.560  0.1427  0.9729 -0.1820
    14 H(1)   Bbb    -0.0223   -11.891    -4.243    -3.967  0.9086 -0.2017 -0.3657
              Bcc     0.0816    43.550    15.540    14.527  0.3925  0.1131  0.9128
 

 ---------------------------------------------------------------------------------

 No NMR shielding tensors so no spin-rotation constants.
 Leave Link  601 at Mon May 26 11:49:21 2025, MaxMem=  3758096384 cpu:               0.8 elap:               0.2
 (Enter /gpfs/fs1/soft/bebop/software/custom-built/gaussian/16-c.02/g16/l701.exe)
 ... and contract with generalized density number  0.
 Compute integral first derivatives.
 R6Disp: Adding Grimme-D2 dispersion energy 1st derivatives to the gradient.
   1 Symmetry operations used in ECPInt.
 ECPInt:  NShTT=    2016 NPrTT=    7252 LenC2=    2013 LenP2D=    6042.
 LDataN:  DoStor=T MaxTD1= 5 Len=  102
 Leave Link  701 at Mon May 26 11:49:22 2025, MaxMem=  3758096384 cpu:               0.7 elap:               0.1
 (Enter /gpfs/fs1/soft/bebop/software/custom-built/gaussian/16-c.02/g16/l702.exe)
 L702 exits ... SP integral derivatives will be done elsewhere.
 Leave Link  702 at Mon May 26 11:49:22 2025, MaxMem=  3758096384 cpu:               0.1 elap:               0.0
 (Enter /gpfs/fs1/soft/bebop/software/custom-built/gaussian/16-c.02/g16/l703.exe)
 Integral derivatives from FoFJK, PRISM(SPDF).
 Compute integral first derivatives, UseDBF=F ICtDFT=           0.
 Calling FoFJK, ICntrl=      2127 FMM=F ISym2X=0 I1Cent= 0 IOpClX= 1 NMat=1 NMatS=1 NMatT=0.
 FoFJK:  IHMeth= 1 ICntrl=    2127 DoSepK=T KAlg= 0 I1Cent=           0 FoldK=F
 IRaf=         1 NMat=       1 IRICut=       1 DoRegI=T DoRafI=F ISym2E= 0 IDoP0=0 IntGTp=1.
 FoFCou: FMM=F IPFlag=           0 FMFlag=      100000 FMFlg1=         800
         NFxFlg=           0 DoJE=F BraDBF=F KetDBF=F FulRan=T
         wScrn=  0.000000 ICntrl=      2527 IOpCl=  0 I1Cent=           0 NGrid=           0
         NMat0=    1 NMatS0=      1 NMatT0=    0 NMatD0=    1 NMtDS0=    0 NMtDT0=    0
 Symmetry not used in FoFCou.
 Leave Link  703 at Mon May 26 11:49:26 2025, MaxMem=  3758096384 cpu:              20.8 elap:               3.5
 (Enter /gpfs/fs1/soft/bebop/software/custom-built/gaussian/16-c.02/g16/l716.exe)
 Dipole        = 6.80140938D-01-5.47333414D-02-1.54910324D-01
 ***** Axes restored to original set *****
 -------------------------------------------------------------------
 Center     Atomic                   Forces (Hartrees/Bohr)
 Number     Number              X              Y              Z
 -------------------------------------------------------------------
      1        6           0.042845802   -0.030930827   -0.044782609
      2        6           0.002667222    0.003748046    0.002603503
      3        6           0.020709106    0.053586689    0.109466767
      4        1          -0.000203898   -0.001861346    0.000936535
      5        6           0.021104618    0.009100198    0.006979169
      6        1          -0.000091267    0.002166106    0.000123772
      7        1          -0.000852628    0.002180806   -0.002663464
      8        8           0.004256627    0.037931262    0.009588449
      9        1          -0.001556622   -0.000512016    0.000549863
     10        8          -0.007274619   -0.017748583    0.000389807
     11        6          -0.053419647   -0.067058668   -0.094083527
     12        1          -0.023173281   -0.003887793   -0.008223792
     13        1          -0.004799994    0.013284048    0.019805412
     14        1          -0.000211420    0.000002078   -0.000689885
 -------------------------------------------------------------------
 Cartesian Forces:  Max     0.109466767 RMS     0.030876886
 -----------------------------------------------------------------------------------------------
                       Internal Coordinate Forces (Hartree/Bohr or radian)
  Cent   Atom   N1       Length/X         N2         Alpha/Y        N3         Beta/Z          J
 -----------------------------------------------------------------------------------------------
      1  C 
      2  C        1   0.016881(     1)
      3  C        1  -0.066094(     2)      2  -0.039337(    14)
      4  H        1   0.000060(     3)      2  -0.002459(    15)      3  -0.002896(    26)     0
      5  C        2   0.032376(     4)      1   0.086496(    16)      3  -0.015640(    27)     0
      6  H        2   0.000549(     5)      1  -0.000222(    17)      5  -0.003979(    28)     0
      7  H        2  -0.003235(     6)      1  -0.003009(    18)      5   0.000383(    29)     0
      8  O        5   0.005603(     7)      2   0.038788(    19)      1   0.044427(    30)     0
      9  H        5  -0.000069(     8)      2  -0.003150(    20)      8  -0.001472(    31)     0
     10  O        8  -0.019184(     9)      5  -0.001868(    21)      2  -0.005163(    32)     0
     11  C        3  -0.108072(    10)      1  -0.080384(    22)      2   0.006104(    33)     0
     12  H        3  -0.007518(    11)      1  -0.048442(    23)     11   0.005173(    34)     0
     13  H       11  -0.006262(    12)      3   0.048448(    24)      1   0.004904(    35)     0
     14  H       10   0.000632(    13)      8  -0.000340(    25)      5  -0.000537(    36)     0
 -----------------------------------------------------------------------------------------------
 Internal  Forces:  Max     0.108072225 RMS     0.034142304
 Force constants in internal coordinates: 
                1             2             3             4             5 
      1  0.450807D+00
      2  0.121693D+00  0.585203D+00
      3  0.000000D+00  0.000000D+00  0.345440D+00
      4 -0.104704D-01 -0.964966D-01  0.000000D+00  0.389123D+00
      5  0.000000D+00  0.000000D+00  0.000000D+00  0.000000D+00  0.340415D+00
      6  0.000000D+00  0.000000D+00  0.000000D+00  0.000000D+00  0.000000D+00
      7  0.000000D+00  0.000000D+00  0.000000D+00  0.000000D+00  0.000000D+00
      8  0.000000D+00  0.000000D+00  0.000000D+00  0.000000D+00  0.000000D+00
      9  0.000000D+00  0.000000D+00  0.000000D+00  0.000000D+00  0.000000D+00
     10 -0.848226D-01 -0.114068D-01  0.000000D+00 -0.560284D-01  0.000000D+00
     11  0.000000D+00  0.000000D+00  0.000000D+00  0.000000D+00  0.000000D+00
     12  0.000000D+00  0.000000D+00  0.000000D+00  0.000000D+00  0.000000D+00
     13  0.000000D+00  0.000000D+00  0.000000D+00  0.000000D+00  0.000000D+00
     14  0.555397D+00  0.830692D+00  0.000000D+00 -0.242467D+00  0.000000D+00
     15  0.000000D+00  0.000000D+00  0.000000D+00  0.000000D+00  0.000000D+00
     16  0.406952D+00  0.314226D+00  0.000000D+00  0.447562D-01  0.000000D+00
     17 -0.145583D-02  0.252874D-03  0.000000D+00  0.000000D+00  0.000000D+00
     18  0.148334D-02 -0.257653D-03  0.000000D+00  0.000000D+00  0.000000D+00
     19  0.184768D-01 -0.128394D-02  0.000000D+00 -0.566053D-02  0.000000D+00
     20 -0.203809D-01  0.126769D-01  0.000000D+00 -0.268610D-01  0.000000D+00
     21  0.000000D+00  0.000000D+00  0.000000D+00  0.000000D+00  0.000000D+00
     22  0.327606D+00  0.848988D+00  0.000000D+00 -0.359749D+00  0.000000D+00
     23  0.000000D+00  0.000000D+00  0.000000D+00  0.000000D+00  0.000000D+00
     24  0.302921D-01 -0.198294D-01  0.000000D+00  0.428274D-01  0.000000D+00
     25  0.000000D+00  0.000000D+00  0.000000D+00  0.000000D+00  0.000000D+00
     26  0.000000D+00  0.000000D+00  0.000000D+00  0.000000D+00  0.000000D+00
     27  0.299503D+00  0.618014D+00  0.000000D+00 -0.639493D-01  0.000000D+00
     28 -0.199976D-03  0.347354D-04  0.000000D+00  0.000000D+00  0.000000D+00
     29 -0.256883D-03  0.446200D-04  0.000000D+00  0.000000D+00  0.000000D+00
     30 -0.960904D-01  0.208080D-01  0.000000D+00 -0.121044D-01  0.000000D+00
     31 -0.274665D-01  0.130172D-01  0.000000D+00 -0.242432D-01  0.000000D+00
     32 -0.109513D-02  0.169361D-02  0.000000D+00 -0.441979D-02  0.000000D+00
     33 -0.260190D-01  0.886669D-01  0.000000D+00  0.610935D-01  0.000000D+00
     34 -0.270202D-03 -0.658126D-04  0.000000D+00  0.331460D-03  0.000000D+00
     35 -0.786618D-02 -0.666000D-02  0.000000D+00  0.235965D-01  0.000000D+00
     36  0.000000D+00  0.000000D+00  0.000000D+00  0.000000D+00  0.000000D+00
                6             7             8             9            10 
      6  0.330323D+00
      7  0.000000D+00  0.409543D+00
      8  0.000000D+00  0.000000D+00  0.339419D+00
      9  0.000000D+00  0.000000D+00  0.000000D+00  0.173712D+00
     10  0.000000D+00  0.000000D+00  0.000000D+00  0.000000D+00  0.374061D+00
     11  0.000000D+00  0.000000D+00  0.000000D+00  0.000000D+00  0.000000D+00
     12  0.000000D+00  0.000000D+00  0.000000D+00  0.000000D+00  0.000000D+00
     13  0.000000D+00  0.000000D+00  0.000000D+00  0.000000D+00  0.000000D+00
     14  0.000000D+00  0.000000D+00  0.000000D+00  0.000000D+00 -0.209306D+00
     15  0.000000D+00  0.000000D+00  0.000000D+00  0.000000D+00  0.000000D+00
     16  0.000000D+00  0.000000D+00  0.000000D+00  0.000000D+00 -0.318285D+00
     17  0.000000D+00  0.000000D+00  0.000000D+00  0.000000D+00  0.116444D-02
     18  0.000000D+00  0.000000D+00  0.000000D+00  0.000000D+00 -0.118645D-02
     19  0.000000D+00  0.000000D+00  0.000000D+00  0.000000D+00 -0.110878D-01
     20  0.000000D+00  0.000000D+00  0.000000D+00  0.000000D+00  0.338157D-01
     21  0.000000D+00  0.000000D+00  0.000000D+00  0.000000D+00  0.000000D+00
     22  0.000000D+00  0.000000D+00  0.000000D+00  0.000000D+00  0.437997D-01
     23  0.000000D+00  0.000000D+00  0.000000D+00  0.000000D+00  0.000000D+00
     24  0.000000D+00  0.000000D+00  0.000000D+00  0.000000D+00 -0.521537D-01
     25  0.000000D+00  0.000000D+00  0.000000D+00  0.000000D+00  0.000000D+00
     26  0.000000D+00  0.000000D+00  0.000000D+00  0.000000D+00  0.000000D+00
     27  0.000000D+00  0.000000D+00  0.000000D+00  0.000000D+00 -0.138892D+00
     28  0.000000D+00  0.000000D+00  0.000000D+00  0.000000D+00  0.159950D-03
     29  0.000000D+00  0.000000D+00  0.000000D+00  0.000000D+00  0.205467D-03
     30  0.000000D+00  0.000000D+00  0.000000D+00  0.000000D+00  0.847501D-01
     31  0.000000D+00  0.000000D+00  0.000000D+00  0.000000D+00  0.377763D-01
     32  0.000000D+00  0.000000D+00  0.000000D+00  0.000000D+00  0.375775D-02
     33  0.000000D+00  0.000000D+00  0.000000D+00  0.000000D+00 -0.947911D-02
     34  0.000000D+00  0.000000D+00  0.000000D+00  0.000000D+00  0.000000D+00
     35  0.000000D+00  0.000000D+00  0.000000D+00  0.000000D+00 -0.909377D-02
     36  0.000000D+00  0.000000D+00  0.000000D+00  0.000000D+00  0.000000D+00
               11            12            13            14            15 
     11  0.337675D+00
     12  0.000000D+00  0.339909D+00
     13  0.000000D+00  0.000000D+00  0.541903D+00
     14  0.000000D+00  0.000000D+00  0.000000D+00  0.356265D+01
     15  0.000000D+00  0.000000D+00  0.000000D+00  0.146313D+00  0.305625D+00
     16  0.000000D+00  0.000000D+00  0.000000D+00  0.166897D+01  0.000000D+00
     17  0.000000D+00  0.000000D+00  0.000000D+00 -0.489999D-02  0.000000D+00
     18  0.000000D+00  0.000000D+00  0.000000D+00  0.499259D-02  0.000000D+00
     19  0.000000D+00  0.000000D+00  0.000000D+00  0.700527D-01  0.000000D+00
     20  0.000000D+00  0.000000D+00  0.000000D+00 -0.610582D-01  0.000000D+00
     21  0.000000D+00  0.000000D+00  0.000000D+00  0.000000D+00  0.000000D+00
     22  0.000000D+00  0.000000D+00  0.000000D+00  0.268944D+01  0.000000D+00
     23  0.000000D+00  0.000000D+00  0.000000D+00  0.000000D+00  0.000000D+00
     24  0.000000D+00  0.000000D+00  0.000000D+00 -0.350886D-01  0.000000D+00
     25  0.000000D+00  0.000000D+00  0.000000D+00  0.000000D+00  0.000000D+00
     26  0.000000D+00  0.000000D+00  0.000000D+00 -0.359304D-01 -0.305746D-01
     27  0.000000D+00  0.000000D+00  0.000000D+00  0.197064D+01  0.000000D+00
     28  0.000000D+00  0.000000D+00  0.000000D+00 -0.673073D-03  0.000000D+00
     29  0.000000D+00  0.000000D+00  0.000000D+00 -0.864609D-03  0.000000D+00
     30  0.000000D+00  0.000000D+00  0.000000D+00 -0.313134D+00  0.000000D+00
     31  0.000000D+00  0.000000D+00  0.000000D+00 -0.781886D-01  0.000000D+00
     32  0.000000D+00  0.000000D+00  0.000000D+00 -0.167699D-02  0.000000D+00
     33  0.000000D+00  0.000000D+00  0.000000D+00  0.824030D-01 -0.582103D-02
     34  0.000000D+00  0.000000D+00  0.000000D+00 -0.153271D-02 -0.291052D-02
     35  0.000000D+00  0.000000D+00  0.000000D+00 -0.252825D-01  0.000000D+00
     36  0.000000D+00  0.000000D+00  0.000000D+00  0.000000D+00  0.000000D+00
               16            17            18            19            20 
     16  0.173078D+01
     17  0.148961D-01  0.252330D+00
     18  0.299146D-01  0.725591D-01  0.253755D+00
     19  0.636227D-01  0.000000D+00  0.000000D+00  0.336073D+00
     20 -0.119757D+00  0.000000D+00  0.000000D+00  0.390846D-01  0.265068D+00
     21  0.000000D+00  0.000000D+00  0.000000D+00  0.000000D+00  0.000000D+00
     22  0.874845D+00  0.761886D-04 -0.776285D-04  0.470672D-02  0.163484D-01
     23  0.000000D+00  0.000000D+00  0.000000D+00  0.000000D+00  0.000000D+00
     24  0.868291D-01  0.000000D+00  0.000000D+00 -0.158094D-02  0.139536D-02
     25  0.000000D+00  0.000000D+00  0.000000D+00  0.000000D+00  0.000000D+00
     26  0.000000D+00  0.000000D+00  0.000000D+00  0.000000D+00  0.000000D+00
     27  0.100487D+01  0.298092D-02 -0.310237D-02 -0.646914D-01 -0.426706D-01
     28 -0.624751D-01  0.505320D-01  0.689525D-01  0.000000D+00  0.000000D+00
     29  0.632523D-01 -0.698126D-01 -0.453675D-01  0.000000D+00  0.000000D+00
     30 -0.360156D+00 -0.959021D-02  0.977145D-02 -0.653015D-01  0.601018D-01
[...]
 Alpha virt. eigenvalues --    2.18070   2.19869   2.28035   2.31286   2.33334
 Alpha virt. eigenvalues --    2.34798   2.39390   2.41644   2.50966   2.52040
 Alpha virt. eigenvalues --    2.59704   2.64281   2.68641   2.72221   2.77756
 Alpha virt. eigenvalues --    2.78430   2.83041   2.84953   2.91103   2.92506
 Alpha virt. eigenvalues --    2.99670   3.03911   3.07275   3.09174   3.09678
 Alpha virt. eigenvalues --    3.16873   3.18354   3.34986   3.49969   3.53138
 Alpha virt. eigenvalues --    3.82996
  Beta  occ. eigenvalues --  -19.29447 -19.25316 -10.35593 -10.33440 -10.31107
  Beta  occ. eigenvalues --  -10.31041 -10.30562  -1.12859  -1.00577  -0.91865
  Beta  occ. eigenvalues --   -0.80974  -0.77152  -0.65005  -0.63055  -0.61504
  Beta  occ. eigenvalues --   -0.56532  -0.52419  -0.49984  -0.49244  -0.46320
  Beta  occ. eigenvalues --   -0.45670  -0.44389  -0.41944  -0.38798  -0.35367
  Beta  occ. eigenvalues --   -0.31753
  Beta virt. eigenvalues --   -0.01093   0.04992   0.11899   0.15237   0.18108
  Beta virt. eigenvalues --    0.18625   0.19671   0.20483   0.21512   0.22129
  Beta virt. eigenvalues --    0.26386   0.28219   0.29099   0.32344   0.38294
  Beta virt. eigenvalues --    0.42123   0.46621   0.50186   0.54588   0.57394
  Beta virt. eigenvalues --    0.57620   0.60441   0.62232   0.65812   0.65990
  Beta virt. eigenvalues --    0.68303   0.68881   0.70881   0.72437   0.72863
  Beta virt. eigenvalues --    0.74799   0.75681   0.77480   0.77919   0.79778
  Beta virt. eigenvalues --    0.80147   0.86117   0.87908   0.94719   0.98356
  Beta virt. eigenvalues --    1.02798   1.04509   1.06768   1.12042   1.14354
  Beta virt. eigenvalues --    1.23014   1.28835   1.33957   1.35778   1.38037
  Beta virt. eigenvalues --    1.39661   1.40786   1.44826   1.53287   1.55020
  Beta virt. eigenvalues --    1.61881   1.64038   1.68018   1.69003   1.70474
  Beta virt. eigenvalues --    1.72249   1.78887   1.79955   1.81796   1.84430
  Beta virt. eigenvalues --    1.88130   1.89248   1.94204   1.96329   1.98461
  Beta virt. eigenvalues --    2.01065   2.05374   2.07959   2.09540   2.14029
  Beta virt. eigenvalues --    2.15679   2.18411   2.20636   2.28387   2.32141
  Beta virt. eigenvalues --    2.33752   2.36662   2.40539   2.42628   2.51568
  Beta virt. eigenvalues --    2.52185   2.60323   2.64776   2.69454   2.73297
  Beta virt. eigenvalues --    2.78600   2.78954   2.83540   2.85278   2.91195
  Beta virt. eigenvalues --    2.92996   2.99870   3.05445   3.07944   3.09709
  Beta virt. eigenvalues --    3.10226   3.17331   3.18844   3.36196   3.50207
  Beta virt. eigenvalues --    3.53189   3.84271
          Condensed to atoms (all electrons):
               1          2          3          4          5          6
     1  C    5.297342   0.288196   0.281615   0.420734  -0.149197  -0.030777
     2  C    0.288196   4.854570  -0.091406  -0.025250   0.285120   0.370053
     3  C    0.281615  -0.091406   5.076907  -0.051642   0.035378   0.011159
     4  H    0.420734  -0.025250  -0.051642   0.607517   0.000889  -0.004343
     5  C   -0.149197   0.285120   0.035378   0.000889   5.063426  -0.004222
     6  H   -0.030777   0.370053   0.011159  -0.004343  -0.004222   0.625617
     7  H   -0.008086   0.369019  -0.019065   0.000568  -0.032936  -0.024701
     8  O    0.062820  -0.067338  -0.038027  -0.002673   0.160567   0.003042
     9  H    0.013349  -0.032862   0.011491  -0.000470   0.417534  -0.003436
    10  O    0.008075   0.004157  -0.002376  -0.000031  -0.022455  -0.000133
    11  C   -0.078131  -0.020331   0.400811   0.014021   0.191739   0.006076
    12  H   -0.054307   0.006207   0.443073  -0.004432   0.009318  -0.000170
    13  H    0.011801   0.005615  -0.058277  -0.000151  -0.052491  -0.000285
    14  H   -0.001414  -0.000292   0.000433   0.000007  -0.001686  -0.000027
               7          8          9         10         11         12
     1  C   -0.008086   0.062820   0.013349   0.008075  -0.078131  -0.054307
     2  C    0.369019  -0.067338  -0.032862   0.004157  -0.020331   0.006207
     3  C   -0.019065  -0.038027   0.011491  -0.002376   0.400811   0.443073
     4  H    0.000568  -0.002673  -0.000470  -0.000031   0.014021  -0.004432
     5  C   -0.032936   0.160567   0.417534  -0.022455   0.191739   0.009318
     6  H   -0.024701   0.003042  -0.003436  -0.000133   0.006076  -0.000170
     7  H    0.643275   0.005587  -0.000048  -0.000005   0.010561   0.000231
     8  O    0.005587   8.186085  -0.020381   0.052487  -0.054944   0.000176
     9  H   -0.000048  -0.020381   0.608080   0.005198  -0.047537  -0.000128
    10  O   -0.000005   0.052487   0.005198   7.910648   0.006647   0.000013
    11  C    0.010561  -0.054944  -0.047537   0.006647   5.174677  -0.050958
    12  H    0.000231   0.000176  -0.000128   0.000013  -0.050958   0.619331
    13  H    0.000314   0.002468  -0.003444   0.000464   0.446057  -0.005453
    14  H    0.000000   0.002719  -0.000191   0.293349   0.001002  -0.000014
              13         14
     1  C    0.011801  -0.001414
     2  C    0.005615  -0.000292
     3  C   -0.058277   0.000433
     4  H   -0.000151   0.000007
     5  C   -0.052491  -0.001686
     6  H   -0.000285  -0.000027
     7  H    0.000314   0.000000
     8  O    0.002468   0.002719
     9  H   -0.003444  -0.000191
    10  O    0.000464   0.293349
    11  C    0.446057   0.001002
    12  H   -0.005453  -0.000014
    13  H    0.617576  -0.000056
    14  H   -0.000056   0.527822
          Atomic-Atomic Spin Densities.
               1          2          3          4          5          6
     1  C    0.781720  -0.045393  -0.028887   0.001090  -0.025491  -0.001734
     2  C   -0.045393  -0.026061   0.007527   0.000695   0.034569   0.003717
     3  C   -0.028887   0.007527  -0.230108   0.000829  -0.000942  -0.000172
     4  H    0.001090   0.000695   0.000829  -0.026673   0.000771   0.000186
     5  C   -0.025491   0.034569  -0.000942   0.000771   0.007232   0.000594
     6  H   -0.001734   0.003717  -0.000172   0.000186   0.000594  -0.000747
     7  H   -0.011539  -0.010173  -0.000002  -0.000937  -0.009861  -0.001227
     8  O   -0.010264   0.008419   0.005139   0.000288   0.003567  -0.000498
     9  H    0.002600  -0.001054  -0.000531  -0.000020  -0.003344  -0.000011
    10  O    0.007731  -0.001144  -0.000380  -0.000053   0.000736  -0.000059
    11  C   -0.040584  -0.010167   0.007842   0.000143  -0.013349   0.000167
    12  H   -0.000850  -0.000351   0.001655  -0.000168  -0.000025  -0.000001
    13  H   -0.000090  -0.000253   0.000040   0.000011   0.000126   0.000007
    14  H   -0.001342   0.000125   0.000054   0.000019   0.000061   0.000008
               7          8          9         10         11         12
     1  C   -0.011539  -0.010264   0.002600   0.007731  -0.040584  -0.000850
     2  C   -0.010173   0.008419  -0.001054  -0.001144  -0.010167  -0.000351
     3  C   -0.000002   0.005139  -0.000531  -0.000380   0.007842   0.001655
     4  H   -0.000937   0.000288  -0.000020  -0.000053   0.000143  -0.000168
     5  C   -0.009861   0.003567  -0.003344   0.000736  -0.013349  -0.000025
     6  H   -0.001227  -0.000498  -0.000011  -0.000059   0.000167  -0.000001
     7  H    0.055087   0.000390   0.000966   0.000123   0.008305   0.000285
     8  O    0.000390  -0.102325   0.001950  -0.068903   0.004409   0.000030
     9  H    0.000966   0.001950  -0.002885  -0.000398   0.000535   0.000022
    10  O    0.000123  -0.068903  -0.000398   0.510197  -0.007059   0.000024
    11  C    0.008305   0.004409   0.000535  -0.007059   0.422863  -0.002180
    12  H    0.000285   0.000030   0.000022   0.000024  -0.002180   0.012372
    13  H   -0.000015   0.000027   0.000071  -0.000023   0.003136   0.000073
    14  H   -0.000017   0.004638  -0.000018   0.001178   0.000952  -0.000011
              13         14
     1  C   -0.000090  -0.001342
     2  C   -0.000253   0.000125
     3  C    0.000040   0.000054
     4  H    0.000011   0.000019
     5  C    0.000126   0.000061
     6  H    0.000007   0.000008
     7  H   -0.000015  -0.000017
     8  O    0.000027   0.004638
     9  H    0.000071  -0.000018
    10  O   -0.000023   0.001178
    11  C    0.003136   0.000952
    12  H    0.000073  -0.000011
    13  H   -0.019469   0.000004
    14  H    0.000004  -0.013829
 Mulliken charges and spin densities:
               1          2
     1  C   -0.062021   0.626967
     2  C    0.054542  -0.039546
     3  C   -0.000074  -0.237936
     4  H    0.045256  -0.023820
     5  C    0.099016  -0.005356
     6  H    0.052147   0.000229
     7  H    0.055284   0.031384
     8  O   -0.292589  -0.153134
     9  H    0.052846  -0.002117
    10  O   -0.256040   0.441969
    11  C    0.000309   0.375015
    12  H    0.037113   0.010875
    13  H    0.035863  -0.016353
    14  H    0.178348  -0.008179
 Sum of Mulliken charges =   0.00000   1.00000
 Mulliken charges and spin densities with hydrogens summed into heavy atoms:
               1          2
     1  C   -0.016766   0.603147
     2  C    0.161972  -0.007932
     3  C    0.037039  -0.227060
     5  C    0.151861  -0.007473
     8  O   -0.292589  -0.153134
    10  O   -0.077691   0.433790
    11  C    0.036173   0.358662
 Electronic spatial extent (au):  <R**2>=            655.5890
 Charge=             -0.0000 electrons
 Dipole moment (field-independent basis, Debye):
    X=              2.0119    Y=              0.4110    Z=             -0.3951  Tot=              2.0911
 Quadrupole moment (field-independent basis, Debye-Ang):
   XX=            -42.2776   YY=            -39.1369   ZZ=            -37.2722
   XY=             -1.5884   XZ=              0.9387   YZ=             -0.7670
 Traceless Quadrupole moment (field-independent basis, Debye-Ang):
   XX=             -2.7154   YY=              0.4253   ZZ=              2.2901
   XY=             -1.5884   XZ=              0.9387   YZ=             -0.7670
 Octapole moment (field-independent basis, Debye-Ang**2):
  XXX=            -14.5346  YYY=              1.3575  ZZZ=             -5.5152  XYY=             -1.8544
  XXY=              3.1813  XXZ=            -13.7044  XZZ=             -8.0915  YZZ=              0.2941
  YYZ=             -0.2431  XYZ=              1.4384
 Hexadecapole moment (field-independent basis, Debye-Ang**3):
 XXXX=           -443.4397 YYYY=           -209.8702 ZZZZ=           -148.6596 XXXY=            -13.0212
 XXXZ=             28.3280 YYYX=              2.6535 YYYZ=              3.0180 ZZZX=              2.6672
 ZZZY=              1.6230 XXYY=           -109.7421 XXZZ=            -82.1371 YYZZ=            -58.9532
 XXYZ=             -9.3490 YYXZ=             -2.0954 ZZXY=             -3.6371
 N-N= 3.047414472488D+02 E-N=-1.414560245697D+03  KE= 3.414888454048D+02
                          Isotropic Fermi Contact Couplings
        Atom                 a.u.       MegaHertz       Gauss      10(-4) cm-1
     1  C(13)              0.15662     176.06597      62.82472      58.72929
     2  C(13)             -0.01054     -11.84473      -4.22649      -3.95098
     3  C(13)             -0.06013     -67.59207     -24.11853     -22.54629
     4  H(1)              -0.00715     -31.97126     -11.40814     -10.66446
     5  C(13)              0.00957      10.76230       3.84025       3.58992
     6  H(1)               0.00032       1.43341       0.51148       0.47813
     7  H(1)               0.01119      50.01474      17.84650      16.68312
     8  O(17)              0.37619    -228.04735     -81.37296     -76.06841
     9  H(1)              -0.00068      -3.04105      -1.08512      -1.01438
    10  O(17)              0.13908     -84.30958     -30.08376     -28.12265
    11  C(13)              0.06583      74.00586      26.40713      24.68570
    12  H(1)               0.00377      16.83260       6.00629       5.61475
    13  H(1)              -0.00514     -22.98987      -8.20336      -7.66859
    14  H(1)              -0.00588     -26.29416      -9.38241      -8.77079
 --------------------------------------------------------
       Center         ----  Spin Dipole Couplings  ----
                      3XX-RR        3YY-RR        3ZZ-RR
 --------------------------------------------------------
     1   Atom        0.617127     -0.333467     -0.283660
     2   Atom        0.010259      0.005248     -0.015507
     3   Atom       -0.088193      0.081856      0.006337
     4   Atom        0.001687     -0.029773      0.028085
     5   Atom        0.016868     -0.000635     -0.016233
     6   Atom       -0.004265      0.005723     -0.001459
     7   Atom       -0.003187     -0.000586      0.003773
     8   Atom       -0.612304      0.380712      0.231592
     9   Atom        0.003744     -0.003305     -0.000439
    10   Atom        1.391903     -0.740551     -0.651351
    11   Atom        0.088002     -0.142478      0.054475
    12   Atom       -0.003613      0.003695     -0.000083
    13   Atom       -0.011517      0.012400     -0.000883
    14   Atom       -0.017567     -0.048960      0.066528
 --------------------------------------------------------
                        XY            XZ            YZ
 --------------------------------------------------------
     1   Atom       -0.048092      0.221998     -0.009899
     2   Atom       -0.018266     -0.005938      0.007061
     3   Atom        0.045481     -0.126679      0.033608
     4   Atom       -0.011225     -0.012455      0.030509
     5   Atom       -0.026586     -0.010382     -0.003870
     6   Atom        0.000739     -0.001741     -0.005105
     7   Atom       -0.003360      0.003529     -0.002296
     8   Atom        0.075837      0.716661     -0.163523
     9   Atom        0.000653      0.000568     -0.004160
    10   Atom       -0.568868     -0.705613      0.185066
    11   Atom       -0.100592      0.257797     -0.089173
    12   Atom       -0.001906     -0.002464      0.007595
    13   Atom       -0.010261      0.008010      0.019486
    14   Atom       -0.017459      0.026233     -0.032727
 --------------------------------------------------------


 ---------------------------------------------------------------------------------
              Anisotropic Spin Dipole Couplings in Principal Axis System
 ---------------------------------------------------------------------------------

       Atom             a.u.   MegaHertz   Gauss  10(-4) cm-1        Axes

              Baa    -0.3369   -45.212   -16.133   -15.081  0.1818  0.7671 -0.6152
     1 C(13)  Bbb    -0.3343   -44.865   -16.009   -14.965 -0.1438  0.6397  0.7551
              Bcc     0.6713    90.077    32.142    30.047  0.9728 -0.0488  0.2266
 
              Baa    -0.0177    -2.374    -0.847    -0.792  0.0226 -0.2777  0.9604
     2 C(13)  Bbb    -0.0104    -1.397    -0.498    -0.466  0.6802  0.7083  0.1888
              Bcc     0.0281     3.771     1.345     1.258  0.7327 -0.6490 -0.2049
 
              Baa    -0.1880   -25.225    -9.001    -8.414  0.8033 -0.2050  0.5592
     3 C(13)  Bbb     0.0923    12.390     4.421     4.133  0.4959  0.7503 -0.4373
              Bcc     0.0957    12.835     4.580     4.281 -0.3299  0.6285  0.7044
 
              Baa    -0.0436   -23.250    -8.296    -7.755  0.1265  0.9204 -0.3699
     4 H(1)   Bbb    -0.0032    -1.734    -0.619    -0.578  0.9341  0.0150  0.3567
              Bcc     0.0468    24.983     8.915     8.334 -0.3339  0.3906  0.8579
 
              Baa    -0.0277    -3.716    -1.326    -1.240  0.4965  0.5802  0.6456
     5 C(13)  Bbb    -0.0091    -1.227    -0.438    -0.409 -0.2971 -0.5853  0.7544
              Bcc     0.0368     4.943     1.764     1.649  0.8156 -0.5664 -0.1183
 
              Baa    -0.0055    -2.923    -1.043    -0.975  0.7484  0.2336  0.6208
     6 H(1)   Bbb    -0.0031    -1.634    -0.583    -0.545  0.6534 -0.4206 -0.6294
              Bcc     0.0085     4.557     1.626     1.520  0.1141  0.8767 -0.4674
 
              Baa    -0.0058    -3.112    -1.110    -1.038  0.8625  0.4621 -0.2064
     7 H(1)   Bbb    -0.0011    -0.570    -0.203    -0.190 -0.2782  0.7735  0.5695
              Bcc     0.0069     3.682     1.314     1.228  0.4228 -0.4338  0.7957
 
              Baa    -1.0373    75.059    26.783    25.037  0.8603 -0.1036 -0.4992
     8 O(17)  Bbb     0.3580   -25.902    -9.242    -8.640  0.2570  0.9338  0.2491
              Bcc     0.6794   -49.158   -17.541   -16.397  0.4403 -0.3426  0.8299
 
              Baa    -0.0063    -3.386    -1.208    -1.129 -0.0851  0.8107  0.5792
     9 H(1)   Bbb     0.0025     1.346     0.480     0.449 -0.0636 -0.5845  0.8089
              Bcc     0.0038     2.040     0.728     0.680  0.9943  0.0320  0.1013
 
              Baa    -0.8872    64.194    22.906    21.413  0.0797  0.8860 -0.4568
    10 O(17)  Bbb    -0.8681    62.815    22.414    20.953  0.3635  0.4009  0.8409
              Bcc     1.7553  -127.009   -45.320   -42.366  0.9282 -0.2331 -0.2901
 
              Baa    -0.1884   -25.276    -9.019    -8.431  0.7060  0.3185 -0.6326
    11 C(13)  Bbb    -0.1768   -23.725    -8.465    -7.914 -0.0482  0.9127  0.4057
              Bcc     0.3652    49.000    17.484    16.345  0.7066 -0.2559  0.6598
 
              Baa    -0.0063    -3.360    -1.199    -1.121  0.3405 -0.5269  0.7788
    12 H(1)   Bbb    -0.0040    -2.130    -0.760    -0.710  0.9159  0.3733 -0.1479
              Bcc     0.0103     5.490     1.959     1.831 -0.2128  0.7636  0.6096
 
              Baa    -0.0259   -13.809    -4.927    -4.606  0.6621  0.4733 -0.5811
    13 H(1)   Bbb    -0.0009    -0.458    -0.163    -0.153  0.7419 -0.3042  0.5976
              Bcc     0.0267    14.266     5.091     4.759 -0.1061  0.8267  0.5525
 
              Baa    -0.0604   -32.253   -11.509   -10.758  0.2697  0.9445  0.1877
    14 H(1)   Bbb    -0.0235   -12.553    -4.479    -4.187  0.9202 -0.1954 -0.3391
              Bcc     0.0840    44.806    15.988    14.946  0.2836 -0.2642  0.9218
 

 ---------------------------------------------------------------------------------

 No NMR shielding tensors so no spin-rotation constants.
 Leave Link  601 at Mon May 26 12:03:10 2025, MaxMem=  3758096384 cpu:               0.8 elap:               0.1
 (Enter /gpfs/fs1/soft/bebop/software/custom-built/gaussian/16-c.02/g16/l9999.exe)
 Unable to Open any file for archive entry.
 1\1\GINC-CSED-0001\POpt\UwB97XD\def2SVP\C5H7O2(2)\COPAN\26-May-2025\1\
 \#P wb97xd/def2svp # SCF=(xqc) # POpt=() # int=ultrafine\\comment:\\0,
 2\C\C,1,R1\C,1,R2,2,A2\H,1,R3,2,A3,3,D3,0\C,2,R4,1,A4,3,D4,0\H,2,R5,1,
 A5,5,D5,0\H,2,R6,1,A6,5,D6,0\O,5,R7,2,A7,1,D7,0\H,5,R8,2,A8,8,D8,0\O,8
 ,R9,5,A9,2,D9,0\C,3,R10,1,A10,2,D10,0\H,3,R11,1,A11,11,D11,0\H,11,R12,
 3,A12,1,D12,0\H,10,R13,8,A13,5,D13,0\\R1=1.51950698\R2=1.45614856\R3=1
 .09093632\R5=1.09853903\R6=1.10108733\R8=1.09490156\R10=1.36113604\R11
 =1.09029591\R12=1.0888554\R13=0.96659534\A2=104.49503279\A3=126.085427
 71\A5=114.38064077\A6=113.67741977\A8=121.73107081\A9=100.65326838\A10
 =106.07029001\A11=125.97041745\A12=128.86774929\A13=94.01106229\D3=159
 .24710005\D5=113.47968372\D6=242.33329797\D8=121.22530668\D9=160.08428
 853\D10=327.30917969\D11=185.92735871\D12=182.6556898\D13=155.46796129
 \R4=1.524019\A4=88.368064\D4=53.979901\R7=1.430244\A7=94.851485\D7=48.
 498804\R9=1.713551\\Version=ES64L-G16RevC.01\State=2-A\HF=-344.5776145
 \S2=0.84353\S2-1=0.\S2A=0.753892\RMSD=7.589e-09\RMSF=8.557e-03\Dipole=
 0.1084781,-0.752032,-0.3154588\Quadrupole=0.0815577,-1.5685571,1.48699
 95,0.7435626,0.4769975,-1.6200557\PG=C01 [X(C5H7O2)]\\@
 The archive entry for this job was punched.


 TOM, TOM, THE BURGLAR'S SON
 STOLE A MACHINE AND AWAY HE RUN
 THE JOB WAS NEAT, BUT TOM GOT BEAT
 BY THE TIME HE GOT HOME IT WAS OBSOLETE.
 Job cpu time:       0 days  1 hours 12 minutes 36.7 seconds.
 Elapsed time:       0 days  0 hours 14 minutes  3.8 seconds.
 File lengths (MBytes):  RWF=     15 Int=      0 D2E=      0 Chk=      3 Scr=      1
 Normal termination of Gaussian 16 at Mon May 26 12:03:11 2025.
