 Entering Gaussian System, Link 0=g16
 Input=run.inp
 Output=run.out
 Initial command:
 /gpfs/fs1/soft/bebop/software/custom-built/gaussian/16-c.02/g16/l1.exe "/scratch/Gau-2213996.inp" -scrdir="/scratch/"
 Default CPUs for threads: 0-35
 Default is to use a total of  36 processors:
                               36 via shared-memory
                                1 via Linda
 Entering Link 1 = /gpfs/fs1/soft/bebop/software/custom-built/gaussian/16-c.02/g16/l1.exe PID=   2213997.
  
 Copyright (c) 1988-2019, Gaussian, Inc.  All Rights Reserved.
  
 This is part of the Gaussian(R) 16 program.  It is based on
 the Gaussian(R) 09 system (copyright 2009, Gaussian, Inc.),
 the Gaussian(R) 03 system (copyright 2003, Gaussian, Inc.),
 the Gaussian(R) 98 system (copyright 1998, Gaussian, Inc.),
 the Gaussian(R) 94 system (copyright 1995, Gaussian, Inc.),
 the Gaussian 92(TM) system (copyright 1992, Gaussian, Inc.),
 the Gaussian 90(TM) system (copyright 1990, Gaussian, Inc.),
 the Gaussian 88(TM) system (copyright 1988, Gaussian, Inc.),
 the Gaussian 86(TM) system (copyright 1986, Carnegie Mellon
 University), and the Gaussian 82(TM) system (copyright 1983,
 Carnegie Mellon University). Gaussian is a federally registered
 trademark of Gaussian, Inc.
  
 This software contains proprietary and confidential information,
 including trade secrets, belonging to Gaussian, Inc.
  
 This software is provided under written license and may be
 used, copied, transmitted, or stored only in accord with that
 written license.
  
 The following legend is applicable only to US Government
 contracts under FAR:
  
                    RESTRICTED RIGHTS LEGEND
  
 Use, reproduction and disclosure by the US Government is
 subject to restrictions as set forth in subparagraphs (a)
 and (c) of the Commercial Computer Software - Restricted
 Rights clause in FAR 52.227-19.
  
 Gaussian, Inc.
 340 Quinnipiac St., Bldg. 40, Wallingford CT 06492
  
  
 ---------------------------------------------------------------
 Warning -- This program may not be used in any manner that
 competes with the business of Gaussian, Inc. or will provide
 assistance to any competitor of Gaussian, Inc.  The licensee
 of this program is prohibited from giving any competitor of
 Gaussian, Inc. access to this program.  By using this program,
 the user acknowledges that Gaussian, Inc. is engaged in the
 business of creating and licensing software in the field of
 computational chemistry and represents and warrants to the
 licensee that it is not a competitor of Gaussian, Inc. and that
 it will not use this program in any manner prohibited above.
 ---------------------------------------------------------------
  

 Cite this work as:
 Gaussian 16, Revision C.01,
 M. J. Frisch, G. W. Trucks, H. B. Schlegel, G. E. Scuseria, 
 M. A. Robb, J. R. Cheeseman, G. Scalmani, V. Barone, 
 G. A. Petersson, H. Nakatsuji, X. Li, M. Caricato, A. V. Marenich, 
 J. Bloino, B. G. Janesko, R. Gomperts, B. Mennucci, H. P. Hratchian, 
 J. V. Ortiz, A. F. Izmaylov, J. L. Sonnenberg, D. Williams-Young, 
 F. Ding, F. Lipparini, F. Egidi, J. Goings, B. Peng, A. Petrone, 
 T. Henderson, D. Ranasinghe, V. G. Zakrzewski, J. Gao, N. Rega, 
 G. Zheng, W. Liang, M. Hada, M. Ehara, K. Toyota, R. Fukuda, 
 J. Hasegawa, M. Ishida, T. Nakajima, Y. Honda, O. Kitao, H. Nakai, 
 T. Vreven, K. Throssell, J. A. Montgomery, Jr., J. E. Peralta, 
 F. Ogliaro, M. J. Bearpark, J. J. Heyd, E. N. Brothers, K. N. Kudin, 
 V. N. Staroverov, T. A. Keith, R. Kobayashi, J. Normand, 
 K. Raghavachari, A. P. Rendell, J. C. Burant, S. S. Iyengar, 
 J. Tomasi, M. Cossi, J. M. Millam, M. Klene, C. Adamo, R. Cammi, 
 J. W. Ochterski, R. L. Martin, K. Morokuma, O. Farkas, 
 J. B. Foresman, and D. J. Fox, Gaussian, Inc., Wallingford CT, 2019.
 
 ******************************************
 Gaussian 16:  ES64L-G16RevC.01  3-Jul-2019
                23-May-2025 
 ******************************************
 %mem=28GB
 %NProcShared=6
 Will use up to    6 processors via shared memory.
 ----------------------------------------------------------------------
 #P wb97xd/def2svp # SCF=(xqc) # POpt=(CALCFC,TS,NOEIGEN,MAXCYCLES=60) 
 # int=ultrafine
 ----------------------------------------------------------------------
 1/5=1,6=60,10=4,11=1,26=4,38=1/1,3;
 2/12=2,17=6,18=5,29=3,40=1/2;
 3/5=43,7=101,11=2,25=1,30=1,71=2,74=-58,75=-5,140=1/1,2,3;
 4//1;
 5/5=2,8=3,13=1,38=5/2,8;
 8/6=4,10=90,11=11/1;
 11/6=1,8=1,9=11,15=111,16=1/1,2,10;
 10/6=1,13=1/2;
 6/7=2,8=2,9=2,10=2,28=1/1;
 7/10=1,25=1/1,2,3,16;
 1/5=1,6=60,10=4,11=1,26=4/3(2);
 2/29=3/2;
 99//99;
 2/29=3/2;
 3/5=43,7=101,11=2,25=1,30=1,71=1,74=-58,75=-5/1,2,3;
 4/5=5,16=3,69=1/1;
 5/5=2,8=3,13=1,38=5/2,8;
 7//1,2,3,16;
 1/5=1,6=60,11=1,26=4/3(-5);
 2/29=3/2;
 6/7=2,8=2,9=2,10=2,19=2,28=1/1;
 99/9=1/99;
 Leave Link    1 at Fri May 23 15:20:12 2025, MaxMem=  3758096384 cpu:               0.3 elap:               0.0
 (Enter /gpfs/fs1/soft/bebop/software/custom-built/gaussian/16-c.02/g16/l101.exe)
 --------
 comment:
 --------
 Symbolic Z-matrix:
 Charge =  0 Multiplicity = 2
 C
 C                    1    R1
 C                    1    R2       2    A2
 H                    1    R3       2    A3       3    D3       0
 C                    2    R4       1    A4       3    D4       0
 H                    2    R5       1    A5       5    D5       0
 H                    2    R6       1    A6       5    D6       0
 O                    5    R7       2    A7       1    D7       0
 H                    5    R8       2    A8       8    D8       0
 O                    8    R9       5    A9       2    D9       0
 C                    3    R10      1    A10      2    D10      0
 H                    3    R11      1    A11      11   D11      0
 H                    3    R12      1    A12      11   D12      0
 H                    11   R13      3    A13      1    D13      0
 H                    11   R14      3    A14      14   D14      0
 H                    10   R15      8    A15      5    D15      0
       Variables:
  R1                    1.50069                  
  R2                    1.49902                  
  R3                    1.09304                  
  R4                    1.52137                  
  R5                    1.09745                  
  R6                    1.10696                  
  R7                    1.42847                  
  R8                    1.09862                  
  R9                    1.71495                  
  R10                   1.54961                  
  R11                   1.09989                  
  R12                   1.10587                  
  R13                   1.09767                  
  R14                   1.10093                  
  R15                   0.9672                   
  A2                  108.46395                  
  A3                  125.45316                  
  A4                   88.56078                  
  A5                  113.7704                   
  A6                  114.81659                  
  A7                   94.64716                  
  A8                  120.56832                  
  A9                  100.61892                  
  A10                 101.39364                  
  A11                 111.67743                  
  A12                 111.13433                  
  A13                 112.72207                  
  A14                 113.15777                  
  A15                  93.42414                  
  D3                  163.99675                  
  D4                   53.59377                  
  D5                  113.83031                  
  D6                  242.15322                  
  D7                   48.63489                  
  D8                  118.72394                  
  D9                  166.1102                   
  D10                 329.61942                  
  D11                 239.16545                  
  D12                 119.78597                  
  D13                 235.65974                  
  D14                 235.77004                  
  D15                 180.62366                  
 
 ITRead=  0  0  0  0  0  0  0  0  0  0  0  0  0  0  0  0
 MicOpt= -1 -1 -1 -1 -1 -1 -1 -1 -1 -1 -1 -1 -1 -1 -1 -1
 NAtoms=     16 NQM=       16 NQMF=       0 NMMI=      0 NMMIF=      0
                NMic=       0 NMicF=      0.
                    Isotopes and Nuclear Properties:
 (Nuclear quadrupole moments (NQMom) in fm**2, nuclear magnetic moments (NMagM)
  in nuclear magnetons)

  Atom         1           2           3           4           5           6           7           8           9          10
 IAtWgt=          12          12          12           1          12           1           1          16           1          16
 AtmWgt=  12.0000000  12.0000000  12.0000000   1.0078250  12.0000000   1.0078250   1.0078250  15.9949146   1.0078250  15.9949146
 NucSpn=           0           0           0           1           0           1           1           0           1           0
 AtZEff=  -0.0000000  -0.0000000  -0.0000000  -0.0000000  -0.0000000  -0.0000000  -0.0000000  -0.0000000  -0.0000000  -0.0000000
 NQMom=    0.0000000   0.0000000   0.0000000   0.0000000   0.0000000   0.0000000   0.0000000   0.0000000   0.0000000   0.0000000
 NMagM=    0.0000000   0.0000000   0.0000000   2.7928460   0.0000000   2.7928460   2.7928460   0.0000000   2.7928460   0.0000000
 AtZNuc=   6.0000000   6.0000000   6.0000000   1.0000000   6.0000000   1.0000000   1.0000000   8.0000000   1.0000000   8.0000000

  Atom        11          12          13          14          15          16
 IAtWgt=          12           1           1           1           1           1
 AtmWgt=  12.0000000   1.0078250   1.0078250   1.0078250   1.0078250   1.0078250
 NucSpn=           0           1           1           1           1           1
 AtZEff=  -0.0000000  -0.0000000  -0.0000000  -0.0000000  -0.0000000  -0.0000000
 NQMom=    0.0000000   0.0000000   0.0000000   0.0000000   0.0000000   0.0000000
 NMagM=    0.0000000   2.7928460   2.7928460   2.7928460   2.7928460   2.7928460
 AtZNuc=   6.0000000   1.0000000   1.0000000   1.0000000   1.0000000   1.0000000
 Leave Link  101 at Fri May 23 15:20:12 2025, MaxMem=  3758096384 cpu:               0.6 elap:               0.1
 (Enter /gpfs/fs1/soft/bebop/software/custom-built/gaussian/16-c.02/g16/l103.exe)

 GradGradGradGradGradGradGradGradGradGradGradGradGradGradGradGradGradGrad
 Berny optimization.
 Initialization pass.
                       ----------------------------
                       !    Initial Parameters    !
                       ! (Angstroms and Degrees)  !
 ----------------------                            ----------------------
 !      Name          Value   Derivative information (Atomic Units)     !
 ------------------------------------------------------------------------
 !       R1          1.5007   calculate D2E/DX2 analytically            !
 !       R2          1.499    calculate D2E/DX2 analytically            !
 !       R3          1.093    calculate D2E/DX2 analytically            !
 !       R4          1.5214   calculate D2E/DX2 analytically            !
 !       R5          1.0974   calculate D2E/DX2 analytically            !
 !       R6          1.107    calculate D2E/DX2 analytically            !
 !       R7          1.4285   calculate D2E/DX2 analytically            !
 !       R8          1.0986   calculate D2E/DX2 analytically            !
 !       R9          1.715    calculate D2E/DX2 analytically            !
 !       R10         1.5496   calculate D2E/DX2 analytically            !
 !       R11         1.0999   calculate D2E/DX2 analytically            !
 !       R12         1.1059   calculate D2E/DX2 analytically            !
 !       R13         1.0977   calculate D2E/DX2 analytically            !
 !       R14         1.1009   calculate D2E/DX2 analytically            !
 !       R15         0.9672   calculate D2E/DX2 analytically            !
 !       A2        108.4639   calculate D2E/DX2 analytically            !
 !       A3        125.4532   calculate D2E/DX2 analytically            !
 !       A4         88.5608   calculate D2E/DX2 analytically            !
 !       A5        113.7704   calculate D2E/DX2 analytically            !
 !       A6        114.8166   calculate D2E/DX2 analytically            !
 !       A7         94.6472   calculate D2E/DX2 analytically            !
 !       A8        120.5683   calculate D2E/DX2 analytically            !
 !       A9        100.6189   calculate D2E/DX2 analytically            !
 !       A10       101.3936   calculate D2E/DX2 analytically            !
 !       A11       111.6774   calculate D2E/DX2 analytically            !
 !       A12       111.1343   calculate D2E/DX2 analytically            !
 !       A13       112.7221   calculate D2E/DX2 analytically            !
 !       A14       113.1578   calculate D2E/DX2 analytically            !
 !       A15        93.4241   calculate D2E/DX2 analytically            !
 !       D3        163.9968   calculate D2E/DX2 analytically            !
 !       D4         53.5938   calculate D2E/DX2 analytically            !
 !       D5        113.8303   calculate D2E/DX2 analytically            !
 !       D6        242.1532   calculate D2E/DX2 analytically            !
 !       D7         48.6349   calculate D2E/DX2 analytically            !
 !       D8        118.7239   calculate D2E/DX2 analytically            !
 !       D9        166.1102   calculate D2E/DX2 analytically            !
 !       D10       329.6194   calculate D2E/DX2 analytically            !
 !       D11       239.1654   calculate D2E/DX2 analytically            !
 !       D12       119.786    calculate D2E/DX2 analytically            !
 !       D13       235.6597   calculate D2E/DX2 analytically            !
 !       D14       235.77     calculate D2E/DX2 analytically            !
 !       D15       180.6237   calculate D2E/DX2 analytically            !
 ------------------------------------------------------------------------
 Trust Radius=3.00D-01 FncErr=1.00D-07 GrdErr=1.00D-06 EigMax=2.50D+02 EigMin=1.00D-04
 Number of steps in this run=     60 maximum allowed number of steps=    100.
 Search for a saddle point of order  1.
 GradGradGradGradGradGradGradGradGradGradGradGradGradGradGradGradGradGrad

 Leave Link  103 at Fri May 23 15:20:12 2025, MaxMem=  3758096384 cpu:               0.1 elap:               0.0
 (Enter /gpfs/fs1/soft/bebop/software/custom-built/gaussian/16-c.02/g16/l202.exe)
 ---------------------------------------------------------------------------------------------------
                            Z-MATRIX (ANGSTROMS AND DEGREES)
   CD    Cent   Atom    N1       Length/X        N2       Alpha/Y        N3        Beta/Z          J
 ---------------------------------------------------------------------------------------------------
      1      1  C 
      2      2  C        1   1.500692(     1)
      3      3  C        1   1.499019(     2)      2  108.464(    16)
      4      4  H        1   1.093044(     3)      2  125.453(    17)      3  163.997(    30)      0
      5      5  C        2   1.521367(     4)      1   88.561(    18)      3   53.594(    31)      0
      6      6  H        2   1.097447(     5)      1  113.770(    19)      5  113.830(    32)      0
      7      7  H        2   1.106965(     6)      1  114.817(    20)      5  242.153(    33)      0
      8      8  O        5   1.428468(     7)      2   94.647(    21)      1   48.635(    34)      0
      9      9  H        5   1.098618(     8)      2  120.568(    22)      8  118.724(    35)      0
     10     10  O        8   1.714951(     9)      5  100.619(    23)      2  166.110(    36)      0
     11     11  C        3   1.549607(    10)      1  101.394(    24)      2  329.619(    37)      0
     12     12  H        3   1.099890(    11)      1  111.677(    25)     11  239.165(    38)      0
     13     13  H        3   1.105875(    12)      1  111.134(    26)     11  119.786(    39)      0
     14     14  H       11   1.097665(    13)      3  112.722(    27)      1  235.660(    40)      0
     15     15  H       11   1.100932(    14)      3  113.158(    28)     14  235.770(    41)      0
     16     16  H       10   0.967199(    15)      8   93.424(    29)      5  180.624(    42)      0
 ---------------------------------------------------------------------------------------------------
                         Z-Matrix orientation:                         
 ---------------------------------------------------------------------
 Center     Atomic      Atomic             Coordinates (Angstroms)
 Number     Number       Type             X           Y           Z
 ---------------------------------------------------------------------
      1          6           0        0.000000    0.000000    0.000000
      2          6           0        0.000000    0.000000    1.500692
      3          6           0        1.421854    0.000000   -0.474751
      4          1           0       -0.855877   -0.245471   -0.634006
      5          6           0        0.902656    1.224054    1.462481
      6          1           0       -0.980252    0.218680    1.943043
      7          1           0        0.436458   -0.904994    1.965302
      8          8           0        0.097289    1.932348    0.518964
      9          1           0        1.081304    1.815108    2.371163
     10          8           0        0.757464    3.508804    0.660434
     11          6           0        2.127257    0.768256    0.671316
     12          1           0        1.523509    0.492166   -1.453116
     13          1           0        1.803449   -1.031436   -0.590879
     14          1           0        2.686597    1.642602    0.314208
     15          1           0        2.799183    0.133095    1.268926
     16          1           0        0.149312    3.884776    0.009073
 ---------------------------------------------------------------------
                    Distance matrix (angstroms):
                    1          2          3          4          5
     1  C    0.000000
     2  C    1.500692   0.000000
     3  C    1.499019   2.433936   0.000000
     4  H    1.093044   2.312946   2.296449   0.000000
     5  C    2.109964   1.521367   2.349626   3.105994   0.000000
     6  H    2.187266   1.097447   3.415211   2.621467   2.187936
     7  H    2.207243   1.106965   2.782782   2.976828   2.236742
     8  O    2.003187   2.169614   2.544782   2.642113   1.428468
     9  H    3.175885   2.285072   3.392612   4.126705   1.098618
    10  O    3.649880   3.686664   3.747234   4.286376   2.425786
    11  C    2.359260   2.409005   1.549607   3.410367   1.527528
    12  H    2.162141   3.359805   1.099890   2.622313   3.069499
    13  H    2.159959   2.948042   1.105875   2.773376   3.180400
    14  H    3.164597   3.365069   2.218146   4.124688   2.162442
    15  H    3.076250   2.811913   2.226019   4.138107   2.196468
    16  H    3.887655   4.163977   4.116422   4.299174   3.123997
                    6          7          8          9         10
     6  H    0.000000
     7  H    1.808371   0.000000
     8  O    2.475026   3.202723   0.000000
     9  H    2.642325   2.824801   2.100636   0.000000
    10  O    3.935690   4.613819   1.714951   2.429006   0.000000
    11  C    3.402343   2.707944   2.345015   2.253751   3.063830
    12  H    4.228180   3.849586   2.827955   4.070728   3.762183
    13  H    3.966426   2.901501   3.595379   4.171090   4.824276
    14  H    4.257516   3.778820   2.613503   2.614916   2.706314
    15  H    3.840038   2.673020   3.331665   2.644844   3.991778
    16  H    4.296093   5.181812   2.018581   3.275912   0.967199
                   11         12         13         14         15
    11  C    0.000000
    12  H    2.225747   0.000000
    13  H    2.221909   1.772902   0.000000
    14  H    1.097665   2.408259   2.957974   0.000000
    15  H    1.100932   3.027505   2.409667   1.789630   0.000000
    16  H    3.750137   3.941601   5.221613   3.399745   4.762789
                   16
    16  H    0.000000
 Stoichiometry    C5H9O2(2)
 Framework group  C1[X(C5H9O2)]
 Deg. of freedom    42
 Full point group                 C1      NOp   1
 Largest Abelian subgroup         C1      NOp   1
 Largest concise Abelian subgroup C1      NOp   1
                         Standard orientation:                         
 ---------------------------------------------------------------------
 Center     Atomic      Atomic             Coordinates (Angstroms)
 Number     Number       Type             X           Y           Z
 ---------------------------------------------------------------------
      1          6           0        1.138416   -0.498207   -0.816730
      2          6           0        0.976220   -1.193360    0.503319
      3          6           0        1.259492    0.974713   -0.565916
      4          1           0        1.408681   -0.981826   -1.758969
      5          6           0       -0.190762   -0.265174    0.805284
      6          1           0        0.663179   -2.241561    0.415745
      7          1           0        1.846015   -1.108991    1.182811
      8          8           0       -0.831588   -0.471286   -0.454628
      9          1           0       -0.867082   -0.473122    1.645707
     10          8           0       -2.379797    0.193097   -0.134157
     11          6           0        0.407410    1.137655    0.718097
     12          1           0        0.881535    1.563744   -1.414414
     13          1           0        2.314910    1.267861   -0.413879
     14          1           0       -0.394714    1.878153    0.603517
     15          1           0        1.006460    1.393276    1.605706
     16          1           0       -2.712552   -0.005781   -1.020270
 ---------------------------------------------------------------------
 Rotational constants (GHZ):           4.3889690           2.3245333           2.1019040
 Leave Link  202 at Fri May 23 15:20:12 2025, MaxMem=  3758096384 cpu:               0.1 elap:               0.0
 (Enter /gpfs/fs1/soft/bebop/software/custom-built/gaussian/16-c.02/g16/l301.exe)
 Standard basis: def2SVP (5D, 7F)
 Ernie: Thresh=  0.10000D-02 Tol=  0.10000D-05 Strict=F.
 There are   150 symmetry adapted cartesian basis functions of A   symmetry.
 There are   143 symmetry adapted basis functions of A   symmetry.
   143 basis functions,   238 primitive gaussians,   150 cartesian basis functions
    28 alpha electrons       27 beta electrons
       nuclear repulsion energy       326.2822322854 Hartrees.
 IExCor= 4639 DFT=T Ex+Corr=wB97XD ExCW=0 ScaHFX=  1.000000
 ScaDFX=  1.000000  1.000000  1.000000  1.000000 ScalE2=  1.000000  1.000000
 IRadAn=      5 IRanWt=     -1 IRanGd=            0 ICorTp=0 IEmpDi=121
 HFx  wShort=  0.000000 wLong=  0.200000 cFull=  0.222036 cShort=  0.000000 cLong=  0.777964
 DFx  wShort=  0.000000 wLong=  0.200000 cFull=  0.000000 cShort=  0.000000 cLong=  1.000000
 NAtoms=   16 NActive=   16 NUniq=   16 SFac= 1.00D+00 NAtFMM=   60 NAOKFM=F Big=F
 Integral buffers will be    131072 words long.
 Raffenetti 2 integral format.
 Two-electron integral symmetry is turned on.
 R6Disp:  Grimme-D2 Dispersion energy=       -0.0083156538 Hartrees.
 Nuclear repulsion after empirical dispersion term =      326.2739166316 Hartrees.
 Leave Link  301 at Fri May 23 15:20:12 2025, MaxMem=  3758096384 cpu:               0.3 elap:               0.1
 (Enter /gpfs/fs1/soft/bebop/software/custom-built/gaussian/16-c.02/g16/l302.exe)
 NPDir=0 NMtPBC=     1 NCelOv=     1 NCel=       1 NClECP=     1 NCelD=      1
         NCelK=      1 NCelE2=     1 NClLst=     1 CellRange=     0.0.
 One-electron integrals computed using PRISM.
 One-electron integral symmetry used in STVInt
   1 Symmetry operations used in ECPInt.
 ECPInt:  NShTT=    2415 NPrTT=    8503 LenC2=    2411 LenP2D=    7156.
 LDataN:  DoStor=T MaxTD1= 4 Len=   56
 NBasis=   143 RedAO= T EigKep=  6.29D-04  NBF=   143
 NBsUse=   143 1.00D-06 EigRej= -1.00D+00 NBFU=   143
 Precomputing XC quadrature grid using
 IXCGrd= 4 IRadAn=           5 IRanWt=          -1 IRanGd=           0 AccXCQ= 0.00D+00.
 Generated NRdTot=       0 NPtTot=           0 NUsed=           0 NTot=          32
 NSgBfM=   150   150   150   150   150 MxSgAt=    16 MxSgA2=    16.
 Leave Link  302 at Fri May 23 15:20:13 2025, MaxMem=  3758096384 cpu:               0.9 elap:               0.2
 (Enter /gpfs/fs1/soft/bebop/software/custom-built/gaussian/16-c.02/g16/l303.exe)
 DipDrv:  MaxL=1.
 Leave Link  303 at Fri May 23 15:20:13 2025, MaxMem=  3758096384 cpu:               0.1 elap:               0.0
 (Enter /gpfs/fs1/soft/bebop/software/custom-built/gaussian/16-c.02/g16/l401.exe)
 ExpMin= 1.22D-01 ExpMax= 2.27D+03 ExpMxC= 3.41D+02 IAcc=3 IRadAn=         5 AccDes= 0.00D+00
 Harris functional with IExCor= 4639 and IRadAn=       5 diagonalized for initial guess.
 HarFok:  IExCor= 4639 AccDes= 0.00D+00 IRadAn=         5 IDoV= 1 UseB2=F ITyADJ=14
 ICtDFT=  3500011 ScaDFX=  1.000000  1.000000  1.000000  1.000000
 FoFCou: FMM=F IPFlag=           0 FMFlag=      100000 FMFlg1=           0
         NFxFlg=           0 DoJE=T BraDBF=F KetDBF=T FulRan=T
         wScrn=  0.000000 ICntrl=       500 IOpCl=  0 I1Cent=   200000004 NGrid=           0
         NMat0=    1 NMatS0=      1 NMatT0=    0 NMatD0=    1 NMtDS0=    0 NMtDT0=    0
 Petite list used in FoFCou.
 Harris En= -331.243400727614    
 JPrj=0 DoOrth=F DoCkMO=F.
 Initial guess <Sx>= 0.0000 <Sy>= 0.0000 <Sz>= 0.5000 <S**2>= 0.7500 S= 0.5000
 Leave Link  401 at Fri May 23 15:20:13 2025, MaxMem=  3758096384 cpu:               2.8 elap:               0.5
 (Enter /gpfs/fs1/soft/bebop/software/custom-built/gaussian/16-c.02/g16/l502.exe)
 Keep R1 and R2 ints in memory in canonical form, NReq=219390812.
 FoFCou: FMM=F IPFlag=           0 FMFlag=           0 FMFlg1=           0
         NFxFlg=           0 DoJE=F BraDBF=F KetDBF=F FulRan=T
         wScrn=  0.000000 ICntrl=       600 IOpCl=  0 I1Cent=           0 NGrid=           0
         NMat0=    1 NMatS0=  10296 NMatT0=    0 NMatD0=    1 NMtDS0=    0 NMtDT0=    0
 Symmetry not used in FoFCou.
 Two-electron integral symmetry not used.
 UHF open shell SCF:
 Using DIIS extrapolation, IDIIS=  1040.
 NGot=  3758096384 LenX=  3546012518 LenY=  3545989577
 Requested convergence on RMS density matrix=1.00D-08 within  32 cycles.
 Requested convergence on MAX density matrix=1.00D-06.
 Requested convergence on             energy=1.00D-06.
 No special actions if energy rises.
 Integral accuracy reduced to 1.0D-05 until final iterations.

 Cycle   1  Pass 0  IDiag  1:
 E= -345.678474431006    
 DIIS: error= 2.55D-02 at cycle   1 NSaved=   1.
 NSaved= 1 IEnMin= 1 EnMin= -345.678474431006     IErMin= 1 ErrMin= 2.55D-02
 ErrMax= 2.55D-02  0.00D+00 EMaxC= 1.00D-01 BMatC= 1.03D+00 BMatP= 1.03D+00
 IDIUse=3 WtCom= 7.45D-01 WtEn= 2.55D-01
 Coeff-Com:  0.100D+01
 Coeff-En:   0.100D+01
 Coeff:      0.100D+01
 Gap=     0.215 Goal=   None    Shift=    0.000
 Gap=     0.352 Goal=   None    Shift=    0.000
 GapD=    0.215 DampG=1.000 DampE=0.500 DampFc=0.5000 IDamp=-1.
 Damping current iteration by 5.00D-01
 RMSDP=6.50D-03 MaxDP=2.01D-01              OVMax= 3.33D-01

 Cycle   2  Pass 0  IDiag  1:
 E= -345.728757453003     Delta-E=       -0.050283021997 Rises=F Damp=T
 DIIS: error= 1.38D-02 at cycle   2 NSaved=   2.
 NSaved= 2 IEnMin= 2 EnMin= -345.728757453003     IErMin= 2 ErrMin= 1.38D-02
 ErrMax= 1.38D-02  0.00D+00 EMaxC= 1.00D-01 BMatC= 1.65D-01 BMatP= 1.03D+00
 IDIUse=3 WtCom= 8.62D-01 WtEn= 1.38D-01
 Coeff-Com:  0.609D-01 0.939D+00
 Coeff-En:   0.253D+00 0.747D+00
 Coeff:      0.874D-01 0.913D+00
 Gap=     0.244 Goal=   None    Shift=    0.000
 Gap=     0.444 Goal=   None    Shift=    0.000
 RMSDP=2.17D-03 MaxDP=7.27D-02 DE=-5.03D-02 OVMax= 2.40D-01

 Cycle   3  Pass 0  IDiag  1:
 E= -345.814837808246     Delta-E=       -0.086080355243 Rises=F Damp=F
 DIIS: error= 8.54D-03 at cycle   3 NSaved=   3.
 NSaved= 3 IEnMin= 3 EnMin= -345.814837808246     IErMin= 3 ErrMin= 8.54D-03
 ErrMax= 8.54D-03  0.00D+00 EMaxC= 1.00D-01 BMatC= 5.12D-02 BMatP= 1.65D-01
 IDIUse=3 WtCom= 9.15D-01 WtEn= 8.54D-02
 Coeff-Com: -0.130D+00 0.342D+00 0.788D+00
 Coeff-En:   0.000D+00 0.000D+00 0.100D+01
 Coeff:     -0.119D+00 0.313D+00 0.806D+00
 Gap=     0.274 Goal=   None    Shift=    0.000
 Gap=     0.316 Goal=   None    Shift=    0.000
 RMSDP=1.05D-03 MaxDP=3.16D-02 DE=-8.61D-02 OVMax= 5.18D-02

 Cycle   4  Pass 0  IDiag  1:
 E= -345.825721580945     Delta-E=       -0.010883772699 Rises=F Damp=F
 DIIS: error= 3.22D-03 at cycle   4 NSaved=   4.
 NSaved= 4 IEnMin= 4 EnMin= -345.825721580945     IErMin= 4 ErrMin= 3.22D-03
 ErrMax= 3.22D-03  0.00D+00 EMaxC= 1.00D-01 BMatC= 8.93D-03 BMatP= 5.12D-02
 IDIUse=3 WtCom= 9.68D-01 WtEn= 3.22D-02
 Coeff-Com: -0.509D-01 0.904D-01 0.403D+00 0.557D+00
 Coeff-En:   0.000D+00 0.000D+00 0.000D+00 0.100D+01
 Coeff:     -0.492D-01 0.875D-01 0.390D+00 0.572D+00
 Gap=     0.283 Goal=   None    Shift=    0.000
 Gap=     0.315 Goal=   None    Shift=    0.000
 RMSDP=3.14D-04 MaxDP=1.29D-02 DE=-1.09D-02 OVMax= 1.63D-02

 Cycle   5  Pass 0  IDiag  1:
 E= -345.828017919004     Delta-E=       -0.002296338059 Rises=F Damp=F
 DIIS: error= 1.00D-03 at cycle   5 NSaved=   5.
 NSaved= 5 IEnMin= 5 EnMin= -345.828017919004     IErMin= 5 ErrMin= 1.00D-03
 ErrMax= 1.00D-03  0.00D+00 EMaxC= 1.00D-01 BMatC= 7.76D-04 BMatP= 8.93D-03
 IDIUse=3 WtCom= 9.90D-01 WtEn= 1.00D-02
 Coeff-Com: -0.194D-02-0.542D-02 0.467D-01 0.156D+00 0.805D+00
 Coeff-En:   0.000D+00 0.000D+00 0.000D+00 0.000D+00 0.100D+01
 Coeff:     -0.192D-02-0.537D-02 0.463D-01 0.154D+00 0.807D+00
 Gap=     0.287 Goal=   None    Shift=    0.000
 Gap=     0.315 Goal=   None    Shift=    0.000
 RMSDP=2.20D-04 MaxDP=8.01D-03 DE=-2.30D-03 OVMax= 1.52D-02

 Cycle   6  Pass 0  IDiag  1:
 E= -345.828719991462     Delta-E=       -0.000702072458 Rises=F Damp=F
 DIIS: error= 8.44D-04 at cycle   6 NSaved=   6.
 NSaved= 6 IEnMin= 6 EnMin= -345.828719991462     IErMin= 6 ErrMin= 8.44D-04
 ErrMax= 8.44D-04  0.00D+00 EMaxC= 1.00D-01 BMatC= 5.67D-04 BMatP= 7.76D-04
 IDIUse=3 WtCom= 9.92D-01 WtEn= 8.44D-03
 Coeff-Com:  0.318D-01-0.601D-01-0.227D+00-0.297D+00 0.540D+00 0.101D+01
 Coeff-En:   0.000D+00 0.000D+00 0.000D+00 0.000D+00 0.000D+00 0.100D+01
 Coeff:      0.316D-01-0.596D-01-0.225D+00-0.295D+00 0.536D+00 0.101D+01
 Gap=     0.294 Goal=   None    Shift=    0.000
 Gap=     0.323 Goal=   None    Shift=    0.000
 RMSDP=2.89D-04 MaxDP=1.12D-02 DE=-7.02D-04 OVMax= 2.43D-02

 Cycle   7  Pass 0  IDiag  1:
 E= -345.829429624852     Delta-E=       -0.000709633390 Rises=F Damp=F
 DIIS: error= 4.50D-04 at cycle   7 NSaved=   7.
 NSaved= 7 IEnMin= 7 EnMin= -345.829429624852     IErMin= 7 ErrMin= 4.50D-04
 ErrMax= 4.50D-04  0.00D+00 EMaxC= 1.00D-01 BMatC= 8.86D-05 BMatP= 5.67D-04
 IDIUse=3 WtCom= 9.95D-01 WtEn= 4.50D-03
 Coeff-Com: -0.168D-02 0.694D-02-0.175D-01-0.491D-01-0.232D+00-0.657D-01
 Coeff-Com:  0.136D+01
 Coeff-En:   0.000D+00 0.000D+00 0.000D+00 0.000D+00 0.000D+00 0.000D+00
 Coeff-En:   0.100D+01
 Coeff:     -0.167D-02 0.691D-02-0.175D-01-0.489D-01-0.231D+00-0.654D-01
 Coeff:      0.136D+01
 Gap=     0.297 Goal=   None    Shift=    0.000
 Gap=     0.325 Goal=   None    Shift=    0.000
 RMSDP=1.92D-04 MaxDP=7.46D-03 DE=-7.10D-04 OVMax= 1.56D-02

 Cycle   8  Pass 0  IDiag  1:
 E= -345.829635352106     Delta-E=       -0.000205727253 Rises=F Damp=F
 DIIS: error= 1.57D-04 at cycle   8 NSaved=   8.
 NSaved= 8 IEnMin= 8 EnMin= -345.829635352106     IErMin= 8 ErrMin= 1.57D-04
 ErrMax= 1.57D-04  0.00D+00 EMaxC= 1.00D-01 BMatC= 1.89D-05 BMatP= 8.86D-05
 IDIUse=3 WtCom= 9.98D-01 WtEn= 1.57D-03
 Coeff-Com: -0.850D-02 0.164D-01 0.539D-01 0.779D-01-0.951D-01-0.299D+00
 Coeff-Com:  0.704D-01 0.118D+01
 Coeff-En:   0.000D+00 0.000D+00 0.000D+00 0.000D+00 0.000D+00 0.000D+00
 Coeff-En:   0.000D+00 0.100D+01
 Coeff:     -0.849D-02 0.164D-01 0.538D-01 0.778D-01-0.950D-01-0.298D+00
 Coeff:      0.703D-01 0.118D+01
 Gap=     0.298 Goal=   None    Shift=    0.000
 Gap=     0.326 Goal=   None    Shift=    0.000
 RMSDP=7.24D-05 MaxDP=2.44D-03 DE=-2.06D-04 OVMax= 5.38D-03

 Cycle   9  Pass 0  IDiag  1:
 E= -345.829664894137     Delta-E=       -0.000029542031 Rises=F Damp=F
 DIIS: error= 7.07D-05 at cycle   9 NSaved=   9.
 NSaved= 9 IEnMin= 9 EnMin= -345.829664894137     IErMin= 9 ErrMin= 7.07D-05
 ErrMax= 7.07D-05  0.00D+00 EMaxC= 1.00D-01 BMatC= 3.14D-06 BMatP= 1.89D-05
 IDIUse=1 WtCom= 1.00D+00 WtEn= 0.00D+00
 Coeff-Com:  0.107D-02-0.262D-02-0.251D-02-0.285D-02 0.423D-01 0.200D-01
 Coeff-Com: -0.166D+00-0.101D+00 0.121D+01
 Coeff:      0.107D-02-0.262D-02-0.251D-02-0.285D-02 0.423D-01 0.200D-01
 Coeff:     -0.166D+00-0.101D+00 0.121D+01
 Gap=     0.299 Goal=   None    Shift=    0.000
 Gap=     0.326 Goal=   None    Shift=    0.000
 RMSDP=2.62D-05 MaxDP=1.00D-03 DE=-2.95D-05 OVMax= 2.55D-03

 Failed to achieve initial convergence to 1.0D-08 in 10 cycles.
 Switch to full accuracy anyway.
 Cycle  10  Pass 1  IDiag  1:
 E= -345.829690202710     Delta-E=       -0.000025308573 Rises=F Damp=F
 DIIS: error= 5.43D-05 at cycle   1 NSaved=   1.
 NSaved= 1 IEnMin= 1 EnMin= -345.829690202710     IErMin= 1 ErrMin= 5.43D-05
 ErrMax= 5.43D-05  0.00D+00 EMaxC= 1.00D-01 BMatC= 1.77D-06 BMatP= 1.77D-06
 IDIUse=1 WtCom= 1.00D+00 WtEn= 0.00D+00
 Coeff-Com:  0.100D+01
 Coeff:      0.100D+01
 Gap=     0.299 Goal=   None    Shift=    0.000
 Gap=     0.326 Goal=   None    Shift=    0.000
 RMSDP=2.62D-05 MaxDP=1.00D-03 DE=-2.53D-05 OVMax= 1.03D-03

 Cycle  11  Pass 1  IDiag  1:
 E= -345.829692025105     Delta-E=       -0.000001822395 Rises=F Damp=F
 DIIS: error= 3.59D-05 at cycle   2 NSaved=   2.
 NSaved= 2 IEnMin= 2 EnMin= -345.829692025105     IErMin= 2 ErrMin= 3.59D-05
 ErrMax= 3.59D-05  0.00D+00 EMaxC= 1.00D-01 BMatC= 7.51D-07 BMatP= 1.77D-06
 IDIUse=1 WtCom= 1.00D+00 WtEn= 0.00D+00
 Coeff-Com:  0.131D+00 0.869D+00
 Coeff:      0.131D+00 0.869D+00
 Gap=     0.299 Goal=   None    Shift=    0.000
 Gap=     0.326 Goal=   None    Shift=    0.000
 RMSDP=7.32D-06 MaxDP=2.68D-04 DE=-1.82D-06 OVMax= 7.63D-04

 Cycle  12  Pass 1  IDiag  1:
 E= -345.829692916829     Delta-E=       -0.000000891724 Rises=F Damp=F
 DIIS: error= 3.30D-05 at cycle   3 NSaved=   3.
 NSaved= 3 IEnMin= 3 EnMin= -345.829692916829     IErMin= 3 ErrMin= 3.30D-05
 ErrMax= 3.30D-05  0.00D+00 EMaxC= 1.00D-01 BMatC= 5.89D-07 BMatP= 7.51D-07
 IDIUse=1 WtCom= 1.00D+00 WtEn= 0.00D+00
 Coeff-Com: -0.235D+00 0.472D+00 0.763D+00
 Coeff:     -0.235D+00 0.472D+00 0.763D+00
 Gap=     0.299 Goal=   None    Shift=    0.000
 Gap=     0.326 Goal=   None    Shift=    0.000
 RMSDP=7.06D-06 MaxDP=2.61D-04 DE=-8.92D-07 OVMax= 7.64D-04

 Cycle  13  Pass 1  IDiag  1:
 E= -345.829693673147     Delta-E=       -0.000000756319 Rises=F Damp=F
 DIIS: error= 2.27D-05 at cycle   4 NSaved=   4.
 NSaved= 4 IEnMin= 4 EnMin= -345.829693673147     IErMin= 4 ErrMin= 2.27D-05
 ErrMax= 2.27D-05  0.00D+00 EMaxC= 1.00D-01 BMatC= 2.52D-07 BMatP= 5.89D-07
 IDIUse=1 WtCom= 1.00D+00 WtEn= 0.00D+00
 Coeff-Com: -0.177D+00-0.288D+00 0.211D+00 0.125D+01
 Coeff:     -0.177D+00-0.288D+00 0.211D+00 0.125D+01
 Gap=     0.299 Goal=   None    Shift=    0.000
 Gap=     0.326 Goal=   None    Shift=    0.000
 RMSDP=1.01D-05 MaxDP=4.06D-04 DE=-7.56D-07 OVMax= 1.20D-03

 Cycle  14  Pass 1  IDiag  1:
 E= -345.829694404532     Delta-E=       -0.000000731385 Rises=F Damp=F
 DIIS: error= 1.53D-05 at cycle   5 NSaved=   5.
 NSaved= 5 IEnMin= 5 EnMin= -345.829694404532     IErMin= 5 ErrMin= 1.53D-05
 ErrMax= 1.53D-05  0.00D+00 EMaxC= 1.00D-01 BMatC= 1.29D-07 BMatP= 2.52D-07
 IDIUse=1 WtCom= 1.00D+00 WtEn= 0.00D+00
 Coeff-Com:  0.110D+00-0.499D+00-0.605D+00 0.758D+00 0.124D+01
 Coeff:      0.110D+00-0.499D+00-0.605D+00 0.758D+00 0.124D+01
 Gap=     0.299 Goal=   None    Shift=    0.000
 Gap=     0.326 Goal=   None    Shift=    0.000
 RMSDP=1.14D-05 MaxDP=4.62D-04 DE=-7.31D-07 OVMax= 1.38D-03

 Cycle  15  Pass 1  IDiag  1:
 E= -345.829694783227     Delta-E=       -0.000000378695 Rises=F Damp=F
 DIIS: error= 3.77D-06 at cycle   6 NSaved=   6.
 NSaved= 6 IEnMin= 6 EnMin= -345.829694783227     IErMin= 6 ErrMin= 3.77D-06
 ErrMax= 3.77D-06  0.00D+00 EMaxC= 1.00D-01 BMatC= 9.82D-09 BMatP= 1.29D-07
 IDIUse=1 WtCom= 1.00D+00 WtEn= 0.00D+00
 Coeff-Com:  0.227D-01 0.435D-02-0.953D-01-0.325D-01 0.607D-01 0.104D+01
 Coeff:      0.227D-01 0.435D-02-0.953D-01-0.325D-01 0.607D-01 0.104D+01
 Gap=     0.299 Goal=   None    Shift=    0.000
 Gap=     0.326 Goal=   None    Shift=    0.000
 RMSDP=2.02D-06 MaxDP=8.04D-05 DE=-3.79D-07 OVMax= 2.77D-04

 Cycle  16  Pass 1  IDiag  1:
 E= -345.829694804229     Delta-E=       -0.000000021002 Rises=F Damp=F
 DIIS: error= 3.31D-06 at cycle   7 NSaved=   7.
 NSaved= 7 IEnMin= 7 EnMin= -345.829694804229     IErMin= 7 ErrMin= 3.31D-06
 ErrMax= 3.31D-06  0.00D+00 EMaxC= 1.00D-01 BMatC= 5.70D-09 BMatP= 9.82D-09
 IDIUse=1 WtCom= 1.00D+00 WtEn= 0.00D+00
 Coeff-Com: -0.257D-01 0.185D+00 0.154D+00-0.280D+00-0.417D+00 0.584D+00
 Coeff-Com:  0.800D+00
 Coeff:     -0.257D-01 0.185D+00 0.154D+00-0.280D+00-0.417D+00 0.584D+00
 Coeff:      0.800D+00
 Gap=     0.299 Goal=   None    Shift=    0.000
 Gap=     0.326 Goal=   None    Shift=    0.000
 RMSDP=1.14D-06 MaxDP=4.21D-05 DE=-2.10D-08 OVMax= 1.59D-04

 Cycle  17  Pass 1  IDiag  1:
 E= -345.829694811326     Delta-E=       -0.000000007097 Rises=F Damp=F
 DIIS: error= 8.78D-07 at cycle   8 NSaved=   8.
 NSaved= 8 IEnMin= 8 EnMin= -345.829694811326     IErMin= 8 ErrMin= 8.78D-07
 ErrMax= 8.78D-07  0.00D+00 EMaxC= 1.00D-01 BMatC= 8.21D-10 BMatP= 5.70D-09
 IDIUse=1 WtCom= 1.00D+00 WtEn= 0.00D+00
 Coeff-Com: -0.133D-01 0.420D-01 0.667D-01-0.572D-01-0.116D+00-0.179D+00
 Coeff-Com:  0.139D+00 0.112D+01
 Coeff:     -0.133D-01 0.420D-01 0.667D-01-0.572D-01-0.116D+00-0.179D+00
 Coeff:      0.139D+00 0.112D+01
 Gap=     0.299 Goal=   None    Shift=    0.000
 Gap=     0.326 Goal=   None    Shift=    0.000
 RMSDP=6.49D-07 MaxDP=2.16D-05 DE=-7.10D-09 OVMax= 9.03D-05

 Cycle  18  Pass 1  IDiag  1:
 E= -345.829694813224     Delta-E=       -0.000000001898 Rises=F Damp=F
 DIIS: error= 4.85D-07 at cycle   9 NSaved=   9.
 NSaved= 9 IEnMin= 9 EnMin= -345.829694813224     IErMin= 9 ErrMin= 4.85D-07
 ErrMax= 4.85D-07  0.00D+00 EMaxC= 1.00D-01 BMatC= 1.95D-10 BMatP= 8.21D-10
 IDIUse=1 WtCom= 1.00D+00 WtEn= 0.00D+00
 Coeff-Com:  0.444D-02-0.361D-01-0.225D-01 0.472D-01 0.774D-01-0.981D-01
 Coeff-Com: -0.193D+00 0.750D-01 0.115D+01
 Coeff:      0.444D-02-0.361D-01-0.225D-01 0.472D-01 0.774D-01-0.981D-01
 Coeff:     -0.193D+00 0.750D-01 0.115D+01
 Gap=     0.299 Goal=   None    Shift=    0.000
 Gap=     0.326 Goal=   None    Shift=    0.000
 RMSDP=2.53D-07 MaxDP=7.24D-06 DE=-1.90D-09 OVMax= 3.05D-05

 Cycle  19  Pass 1  IDiag  1:
 E= -345.829694813566     Delta-E=       -0.000000000343 Rises=F Damp=F
 DIIS: error= 3.07D-07 at cycle  10 NSaved=  10.
 NSaved=10 IEnMin=10 EnMin= -345.829694813566     IErMin=10 ErrMin= 3.07D-07
 ErrMax= 3.07D-07  0.00D+00 EMaxC= 1.00D-01 BMatC= 5.69D-11 BMatP= 1.95D-10
 IDIUse=1 WtCom= 1.00D+00 WtEn= 0.00D+00
 Coeff-Com:  0.469D-02-0.223D-01-0.212D-01 0.263D-01 0.528D-01 0.288D-01
 Coeff-Com: -0.114D+00-0.242D+00 0.306D+00 0.981D+00
 Coeff:      0.469D-02-0.223D-01-0.212D-01 0.263D-01 0.528D-01 0.288D-01
 Coeff:     -0.114D+00-0.242D+00 0.306D+00 0.981D+00
 Gap=     0.299 Goal=   None    Shift=    0.000
 Gap=     0.326 Goal=   None    Shift=    0.000
 RMSDP=1.17D-07 MaxDP=3.92D-06 DE=-3.43D-10 OVMax= 9.85D-06

 Cycle  20  Pass 1  IDiag  1:
 E= -345.829694813651     Delta-E=       -0.000000000085 Rises=F Damp=F
 DIIS: error= 1.88D-07 at cycle  11 NSaved=  11.
 NSaved=11 IEnMin=11 EnMin= -345.829694813651     IErMin=11 ErrMin= 1.88D-07
 ErrMax= 1.88D-07  0.00D+00 EMaxC= 1.00D-01 BMatC= 1.45D-11 BMatP= 5.69D-11
 IDIUse=1 WtCom= 1.00D+00 WtEn= 0.00D+00
 Coeff-Com: -0.167D-02 0.109D-01 0.957D-02-0.160D-01-0.254D-01 0.337D-01
 Coeff-Com:  0.401D-01 0.235D-01-0.374D+00-0.642D-01 0.136D+01
 Coeff:     -0.167D-02 0.109D-01 0.957D-02-0.160D-01-0.254D-01 0.337D-01
 Coeff:      0.401D-01 0.235D-01-0.374D+00-0.642D-01 0.136D+01
 Gap=     0.299 Goal=   None    Shift=    0.000
 Gap=     0.326 Goal=   None    Shift=    0.000
 RMSDP=7.85D-08 MaxDP=2.57D-06 DE=-8.48D-11 OVMax= 5.78D-06

 Cycle  21  Pass 1  IDiag  1:
 E= -345.829694813678     Delta-E=       -0.000000000027 Rises=F Damp=F
 DIIS: error= 6.86D-08 at cycle  12 NSaved=  12.
 NSaved=12 IEnMin=12 EnMin= -345.829694813678     IErMin=12 ErrMin= 6.86D-08
 ErrMax= 6.86D-08  0.00D+00 EMaxC= 1.00D-01 BMatC= 2.39D-12 BMatP= 1.45D-11
 IDIUse=1 WtCom= 1.00D+00 WtEn= 0.00D+00
 Coeff-Com: -0.754D-03 0.312D-02 0.374D-02-0.416D-02-0.810D-02-0.251D-02
 Coeff-Com:  0.827D-02 0.485D-01-0.432D-01-0.166D+00-0.649D-01 0.123D+01
 Coeff:     -0.754D-03 0.312D-02 0.374D-02-0.416D-02-0.810D-02-0.251D-02
 Coeff:      0.827D-02 0.485D-01-0.432D-01-0.166D+00-0.649D-01 0.123D+01
 Gap=     0.299 Goal=   None    Shift=    0.000
 Gap=     0.326 Goal=   None    Shift=    0.000
 RMSDP=3.18D-08 MaxDP=9.55D-07 DE=-2.67D-11 OVMax= 2.56D-06

 Cycle  22  Pass 1  IDiag  1:
 E= -345.829694813684     Delta-E=       -0.000000000006 Rises=F Damp=F
 DIIS: error= 2.60D-08 at cycle  13 NSaved=  13.
 NSaved=13 IEnMin=13 EnMin= -345.829694813684     IErMin=13 ErrMin= 2.60D-08
 ErrMax= 2.60D-08  0.00D+00 EMaxC= 1.00D-01 BMatC= 4.74D-13 BMatP= 2.39D-12
 IDIUse=1 WtCom= 1.00D+00 WtEn= 0.00D+00
 Coeff-Com:  0.340D-03-0.240D-02-0.183D-02 0.329D-02 0.525D-02-0.556D-02
 Coeff-Com: -0.118D-01-0.307D-02 0.776D-01 0.149D-01-0.278D+00 0.605D-01
 Coeff-Com:  0.114D+01
 Coeff:      0.340D-03-0.240D-02-0.183D-02 0.329D-02 0.525D-02-0.556D-02
 Coeff:     -0.118D-01-0.307D-02 0.776D-01 0.149D-01-0.278D+00 0.605D-01
 Coeff:      0.114D+01
 Gap=     0.299 Goal=   None    Shift=    0.000
 Gap=     0.326 Goal=   None    Shift=    0.000
 RMSDP=1.29D-08 MaxDP=4.29D-07 DE=-5.91D-12 OVMax= 1.13D-06

 Cycle  23  Pass 1  IDiag  1:
 E= -345.829694813684     Delta-E=        0.000000000000 Rises=F Damp=F
 DIIS: error= 1.48D-08 at cycle  14 NSaved=  14.
 NSaved=14 IEnMin=13 EnMin= -345.829694813684     IErMin=14 ErrMin= 1.48D-08
 ErrMax= 1.48D-08  0.00D+00 EMaxC= 1.00D-01 BMatC= 1.64D-13 BMatP= 4.74D-13
 IDIUse=1 WtCom= 1.00D+00 WtEn= 0.00D+00
 Coeff-Com:  0.286D-03-0.149D-02-0.136D-02 0.187D-02 0.353D-02-0.139D-03
 Coeff-Com: -0.623D-02-0.131D-01 0.303D-01 0.478D-01-0.565D-01-0.301D+00
 Coeff-Com:  0.262D+00 0.103D+01
 Coeff:      0.286D-03-0.149D-02-0.136D-02 0.187D-02 0.353D-02-0.139D-03
 Coeff:     -0.623D-02-0.131D-01 0.303D-01 0.478D-01-0.565D-01-0.301D+00
 Coeff:      0.262D+00 0.103D+01
 Gap=     0.299 Goal=   None    Shift=    0.000
 Gap=     0.326 Goal=   None    Shift=    0.000
 RMSDP=6.85D-09 MaxDP=2.61D-07 DE= 0.00D+00 OVMax= 6.01D-07

 SCF Done:  E(UwB97XD) =  -345.829694814     A.U. after   23 cycles
            NFock= 23  Conv=0.68D-08     -V/T= 2.0094
 <Sx>= 0.0000 <Sy>= 0.0000 <Sz>= 0.5000 <S**2>= 0.8226 S= 0.5356
 <L.S>=  0.00000000000    
 KE= 3.426062666944D+02 PE=-1.460095942261D+03 EE= 4.453860641211D+02
 Annihilation of the first spin contaminant:
 S**2 before annihilation     0.8226,   after     0.7505
 Leave Link  502 at Fri May 23 15:20:29 2025, MaxMem=  3758096384 cpu:              78.4 elap:              15.8
 (Enter /gpfs/fs1/soft/bebop/software/custom-built/gaussian/16-c.02/g16/l508.exe)
 QCSCF skips out because SCF is already converged.
 Leave Link  508 at Fri May 23 15:20:29 2025, MaxMem=  3758096384 cpu:               0.0 elap:               0.0
 (Enter /gpfs/fs1/soft/bebop/software/custom-built/gaussian/16-c.02/g16/l801.exe)
 DoSCS=F DFT=T ScalE2(SS,OS)=  1.000000  1.000000
 Range of M.O.s used for correlation:     1   143
 NBasis=   143 NAE=    28 NBE=    27 NFC=     0 NFV=     0
 NROrb=    143 NOA=    28 NOB=    27 NVA=   115 NVB=   116
 Leave Link  801 at Fri May 23 15:20:29 2025, MaxMem=  3758096384 cpu:               0.1 elap:               0.0
 (Enter /gpfs/fs1/soft/bebop/software/custom-built/gaussian/16-c.02/g16/l1101.exe)
 Using compressed storage, NAtomX=    16.
 Will process     17 centers per pass.
   1 Symmetry operations used in ECPInt.
 ECPInt:  NShTT=    2415 NPrTT=    8503 LenC2=    2411 LenP2D=    7156.
 LDataN:  DoStor=T MaxTD1= 5 Len=  102
 R6Disp: Adding Grimme-D2 dispersion energy 1st derivatives to the gradient.
 Leave Link 1101 at Fri May 23 15:20:29 2025, MaxMem=  3758096384 cpu:               0.6 elap:               0.1
 (Enter /gpfs/fs1/soft/bebop/software/custom-built/gaussian/16-c.02/g16/l1102.exe)
 Symmetrizing basis deriv contribution to polar:
 IMax=3 JMax=2 DiffMx= 0.00D+00
 Leave Link 1102 at Fri May 23 15:20:29 2025, MaxMem=  3758096384 cpu:               0.1 elap:               0.0
 (Enter /gpfs/fs1/soft/bebop/software/custom-built/gaussian/16-c.02/g16/l1110.exe)
 Forming Gx(P) for the SCF density, NAtomX=    16.
 Integral derivatives from FoFJK, PRISM(SPDF).
 Do as many integral derivatives as possible in FoFJK.
 G2DrvN: MDV=    3758094600.
 G2DrvN: will do    17 centers at a time, making    1 passes.
 Calling FoFCou, ICntrl=  3107 FMM=F I1Cent=   0 AccDes= 0.00D+00.
 FoFJK:  IHMeth= 1 ICntrl=    3107 DoSepK=T KAlg= 0 I1Cent=           0 FoldK=F
 IRaf=         1 NMat=       1 IRICut=       1 DoRegI=T DoRafI=F ISym2E= 0 IDoP0=0 IntGTp=1.
 FoFCou: FMM=F IPFlag=           0 FMFlag=      100000 FMFlg1=           0
         NFxFlg=           0 DoJE=F BraDBF=F KetDBF=F FulRan=T
         wScrn=  0.000000 ICntrl=      3507 IOpCl=  0 I1Cent=           0 NGrid=           0
         NMat0=    1 NMatS0=      1 NMatT0=    0 NMatD0=    1 NMtDS0=    0 NMtDT0=    0
 Symmetry not used in FoFCou.
 End of G2Drv F.D. properties file   721 does not exist.
 End of G2Drv F.D. properties file   722 does not exist.
 End of G2Drv F.D. properties file   788 does not exist.
 Leave Link 1110 at Fri May 23 15:20:50 2025, MaxMem=  3758096384 cpu:             123.5 elap:              20.6
 (Enter /gpfs/fs1/soft/bebop/software/custom-built/gaussian/16-c.02/g16/l1002.exe)
 Minotr:  UHF open shell wavefunction.
          IDoAtm=1111111111111111
          Direct CPHF calculation.
          Differentiating once with respect to nuclear coordinates.
          Requested convergence is 1.0D-08 RMS, and 1.0D-07 maximum.
          Secondary convergence is 1.0D-12 RMS, and 1.0D-12 maximum.
          NewPWx=T KeepS1=F KeepF1=F KeepIn=T MapXYZ=F SortEE=F KeepMc=T.
         4741 words used for storage of precomputed grid.
 Keep R1 and R2 ints in memory in canonical form, NReq=219386903.
 FoFCou: FMM=F IPFlag=           0 FMFlag=           0 FMFlg1=           0
         NFxFlg=           0 DoJE=F BraDBF=F KetDBF=F FulRan=T
         wScrn=  0.000000 ICntrl=       600 IOpCl=  0 I1Cent=           0 NGrid=           0
         NMat0=    1 NMatS0=  10296 NMatT0=    0 NMatD0=    1 NMtDS0=    0 NMtDT0=    0
 Symmetry not used in FoFCou.
 Two-electron integral symmetry not used.
          MDV=    3758096384 using IRadAn=       1.
          Solving linear equations simultaneously, MaxMat=       0.
          There are    51 degrees of freedom in the 1st order CPHF.  IDoFFX=6 NUNeed=     0.
     45 vectors produced by pass  0 Test12= 1.25D-14 1.96D-09 XBig12= 1.33D-01 1.81D-01.
 AX will form    45 AO Fock derivatives at one time.
     45 vectors produced by pass  1 Test12= 1.25D-14 1.96D-09 XBig12= 1.23D-02 2.80D-02.
     45 vectors produced by pass  2 Test12= 1.25D-14 1.96D-09 XBig12= 7.29D-04 5.67D-03.
     45 vectors produced by pass  3 Test12= 1.25D-14 1.96D-09 XBig12= 1.45D-05 6.84D-04.
     45 vectors produced by pass  4 Test12= 1.25D-14 1.96D-09 XBig12= 2.08D-07 8.60D-05.
     45 vectors produced by pass  5 Test12= 1.25D-14 1.96D-09 XBig12= 2.41D-09 5.65D-06.
     45 vectors produced by pass  6 Test12= 1.25D-14 1.96D-09 XBig12= 2.35D-11 4.69D-07.
     24 vectors produced by pass  7 Test12= 1.25D-14 1.96D-09 XBig12= 1.98D-13 4.47D-08.
      1 vectors produced by pass  8 Test12= 1.25D-14 1.96D-09 XBig12= 1.54D-15 3.58D-09.
 InvSVY:  IOpt=1 It=  1 EMax= 6.11D-16
 Solved reduced A of dimension   340 with    51 vectors.
 End of Minotr F.D. properties file   721 does not exist.
 End of Minotr F.D. properties file   722 does not exist.
 End of Minotr F.D. properties file   788 does not exist.
 Leave Link 1002 at Fri May 23 15:21:13 2025, MaxMem=  3758096384 cpu:             137.1 elap:              23.1
 (Enter /gpfs/fs1/soft/bebop/software/custom-built/gaussian/16-c.02/g16/l601.exe)
 Copying SCF densities to generalized density rwf, IOpCl= 1 IROHF=0.

 **********************************************************************

            Population analysis using the SCF Density.

 **********************************************************************

 Orbital symmetries:
 Alpha Orbitals:
       Occupied  (A) (A) (A) (A) (A) (A) (A) (A) (A) (A) (A) (A)
                 (A) (A) (A) (A) (A) (A) (A) (A) (A) (A) (A) (A)
                 (A) (A) (A) (A)
       Virtual   (A) (A) (A) (A) (A) (A) (A) (A) (A) (A) (A) (A)
                 (A) (A) (A) (A) (A) (A) (A) (A) (A) (A) (A) (A)
                 (A) (A) (A) (A) (A) (A) (A) (A) (A) (A) (A) (A)
                 (A) (A) (A) (A) (A) (A) (A) (A) (A) (A) (A) (A)
                 (A) (A) (A) (A) (A) (A) (A) (A) (A) (A) (A) (A)
                 (A) (A) (A) (A) (A) (A) (A) (A) (A) (A) (A) (A)
                 (A) (A) (A) (A) (A) (A) (A) (A) (A) (A) (A) (A)
                 (A) (A) (A) (A) (A) (A) (A) (A) (A) (A) (A) (A)
                 (A) (A) (A) (A) (A) (A) (A) (A) (A) (A) (A) (A)
                 (A) (A) (A) (A) (A) (A) (A)
 Beta  Orbitals:
       Occupied  (A) (A) (A) (A) (A) (A) (A) (A) (A) (A) (A) (A)
                 (A) (A) (A) (A) (A) (A) (A) (A) (A) (A) (A) (A)
                 (A) (A) (A)
       Virtual   (A) (A) (A) (A) (A) (A) (A) (A) (A) (A) (A) (A)
                 (A) (A) (A) (A) (A) (A) (A) (A) (A) (A) (A) (A)
                 (A) (A) (A) (A) (A) (A) (A) (A) (A) (A) (A) (A)
                 (A) (A) (A) (A) (A) (A) (A) (A) (A) (A) (A) (A)
                 (A) (A) (A) (A) (A) (A) (A) (A) (A) (A) (A) (A)
                 (A) (A) (A) (A) (A) (A) (A) (A) (A) (A) (A) (A)
                 (A) (A) (A) (A) (A) (A) (A) (A) (A) (A) (A) (A)
                 (A) (A) (A) (A) (A) (A) (A) (A) (A) (A) (A) (A)
                 (A) (A) (A) (A) (A) (A) (A) (A) (A) (A) (A) (A)
                 (A) (A) (A) (A) (A) (A) (A) (A)
 The electronic state is 2-A.
 Alpha  occ. eigenvalues --  -19.28971 -19.25365 -10.34532 -10.34419 -10.30703
 Alpha  occ. eigenvalues --  -10.30530 -10.29284  -1.12517  -1.02244  -0.91396
 Alpha  occ. eigenvalues --   -0.81623  -0.79207  -0.65555  -0.64760  -0.61462
 Alpha  occ. eigenvalues --   -0.57257  -0.54829  -0.52828  -0.48072  -0.46831
 Alpha  occ. eigenvalues --   -0.45733  -0.45264  -0.43937  -0.42474  -0.41287
 Alpha  occ. eigenvalues --   -0.39041  -0.33243  -0.26286
 Alpha virt. eigenvalues --    0.03584   0.13811   0.16481   0.18178   0.18457
 Alpha virt. eigenvalues --    0.19542   0.20578   0.21602   0.22562   0.24424
 Alpha virt. eigenvalues --    0.25749   0.27041   0.28504   0.31984   0.32826
 Alpha virt. eigenvalues --    0.38356   0.50334   0.53153   0.54773   0.56047
 Alpha virt. eigenvalues --    0.57244   0.59374   0.63783   0.64926   0.68190
 Alpha virt. eigenvalues --    0.68519   0.70584   0.71009   0.71992   0.72739
 Alpha virt. eigenvalues --    0.74151   0.75022   0.75923   0.76661   0.77594
 Alpha virt. eigenvalues --    0.78209   0.79844   0.81109   0.84416   0.86377
 Alpha virt. eigenvalues --    0.93662   1.00297   1.03139   1.06149   1.07163
 Alpha virt. eigenvalues --    1.11912   1.13954   1.16042   1.21678   1.27833
 Alpha virt. eigenvalues --    1.32330   1.37464   1.40830   1.44799   1.50018
 Alpha virt. eigenvalues --    1.55280   1.56194   1.61993   1.63564   1.64609
 Alpha virt. eigenvalues --    1.68316   1.71545   1.73688   1.74933   1.77329
 Alpha virt. eigenvalues --    1.82697   1.86065   1.86631   1.86822   1.87734
 Alpha virt. eigenvalues --    1.91021   1.91268   1.93071   1.98768   2.00017
 Alpha virt. eigenvalues --    2.02238   2.03476   2.06860   2.08787   2.10698
 Alpha virt. eigenvalues --    2.14123   2.17912   2.24296   2.26304   2.31195
 Alpha virt. eigenvalues --    2.32675   2.36293   2.38339   2.39223   2.47219
 Alpha virt. eigenvalues --    2.48946   2.55903   2.62072   2.65318   2.68064
 Alpha virt. eigenvalues --    2.72729   2.73217   2.76330   2.82828   2.89067
 Alpha virt. eigenvalues --    2.90630   2.94174   2.94799   2.97448   2.99798
 Alpha virt. eigenvalues --    3.03739   3.06941   3.08990   3.12826   3.15528
 Alpha virt. eigenvalues --    3.18619   3.23493   3.36063   3.53963   3.83677
  Beta  occ. eigenvalues --  -19.29045 -19.24168 -10.34490 -10.33617 -10.30768
  Beta  occ. eigenvalues --  -10.30586 -10.29275  -1.12176  -0.99529  -0.90689
  Beta  occ. eigenvalues --   -0.81274  -0.78399  -0.64793  -0.64154  -0.60887
  Beta  occ. eigenvalues --   -0.56231  -0.54439  -0.52093  -0.47088  -0.45813
  Beta  occ. eigenvalues --   -0.45475  -0.44388  -0.43764  -0.41501  -0.40391
  Beta  occ. eigenvalues --   -0.37813  -0.32141
  Beta virt. eigenvalues --    0.00477   0.08860   0.13891   0.16705   0.18315
  Beta virt. eigenvalues --    0.18842   0.19826   0.20714   0.21822   0.22666
  Beta virt. eigenvalues --    0.24562   0.25988   0.27323   0.28682   0.32088
  Beta virt. eigenvalues --    0.33276   0.38736   0.50409   0.53401   0.55883
  Beta virt. eigenvalues --    0.56579   0.57461   0.60279   0.63997   0.66569
  Beta virt. eigenvalues --    0.68358   0.68894   0.70976   0.71304   0.72331
  Beta virt. eigenvalues --    0.73121   0.74460   0.75460   0.76234   0.76827
  Beta virt. eigenvalues --    0.77725   0.78365   0.79892   0.81479   0.84661
  Beta virt. eigenvalues --    0.86721   0.93881   1.01304   1.03586   1.06778
  Beta virt. eigenvalues --    1.08880   1.12300   1.14721   1.16630   1.22131
  Beta virt. eigenvalues --    1.28023   1.33383   1.38148   1.41604   1.45538
  Beta virt. eigenvalues --    1.50229   1.55348   1.56484   1.62408   1.63967
  Beta virt. eigenvalues --    1.65613   1.69004   1.71738   1.74214   1.75381
  Beta virt. eigenvalues --    1.77761   1.83026   1.86364   1.86821   1.87126
  Beta virt. eigenvalues --    1.88085   1.91356   1.91448   1.93302   1.99033
  Beta virt. eigenvalues --    2.00358   2.02456   2.03782   2.07483   2.09637
  Beta virt. eigenvalues --    2.11283   2.14489   2.18151   2.24842   2.26816
  Beta virt. eigenvalues --    2.31577   2.33577   2.37700   2.38807   2.39938
  Beta virt. eigenvalues --    2.47994   2.49285   2.56684   2.62801   2.65404
  Beta virt. eigenvalues --    2.68440   2.73645   2.74665   2.77172   2.83300
  Beta virt. eigenvalues --    2.89353   2.91111   2.94550   2.95342   2.97437
  Beta virt. eigenvalues --    3.00123   3.04827   3.07323   3.09859   3.12936
  Beta virt. eigenvalues --    3.17182   3.18946   3.23876   3.37559   3.53960
  Beta virt. eigenvalues --    3.85141
          Condensed to atoms (all electrons):
               1          2          3          4          5          6
     1  C    5.258551   0.279196   0.362569   0.409964  -0.106328  -0.028230
     2  C    0.279196   4.871804  -0.105615  -0.024045   0.311255   0.370068
     3  C    0.362569  -0.105615   4.743984  -0.042928  -0.014319   0.009885
     4  H    0.409964  -0.024045  -0.042928   0.605194   0.001060  -0.005542
     5  C   -0.106328   0.311255  -0.014319   0.001060   4.957380   0.002874
     6  H   -0.028230   0.370068   0.009885  -0.005542   0.002874   0.617782
     7  H   -0.006324   0.362196  -0.011962   0.001046  -0.040483  -0.025279
     8  O    0.081789  -0.064900  -0.022273  -0.003086   0.165903   0.001401
     9  H    0.016322  -0.032618   0.009168  -0.000508   0.404237  -0.004538
    10  O    0.009119   0.003601  -0.001754  -0.000033  -0.011252  -0.000213
    11  C   -0.111114  -0.044609   0.336292   0.011377   0.351635   0.006247
    12  H   -0.017854   0.009573   0.363528  -0.003566  -0.007157  -0.000232
    13  H   -0.003826  -0.003597   0.345123   0.001038  -0.002996  -0.000367
    14  H   -0.000903   0.009527  -0.004952  -0.000119  -0.000146  -0.000310
    15  H   -0.005061   0.004326  -0.003952  -0.000403  -0.018064  -0.000258
    16  H   -0.001103  -0.000634   0.000052   0.000016  -0.002471   0.000016
               7          8          9         10         11         12
     1  C   -0.006324   0.081789   0.016322   0.009119  -0.111114  -0.017854
     2  C    0.362196  -0.064900  -0.032618   0.003601  -0.044609   0.009573
     3  C   -0.011962  -0.022273   0.009168  -0.001754   0.336292   0.363528
     4  H    0.001046  -0.003086  -0.000508  -0.000033   0.011377  -0.003566
     5  C   -0.040483   0.165903   0.404237  -0.011252   0.351635  -0.007157
     6  H   -0.025279   0.001401  -0.004538  -0.000213   0.006247  -0.000232
     7  H    0.662686   0.005690   0.000327   0.000027   0.004938  -0.000357
     8  O    0.005690   8.197061  -0.021865   0.023509  -0.056962   0.001871
     9  H    0.000327  -0.021865   0.618511   0.007884  -0.039888  -0.000246
    10  O    0.000027   0.023509   0.007884   7.935395  -0.006891  -0.000019
    11  C    0.004938  -0.056962  -0.039888  -0.006891   4.779683   0.004104
    12  H   -0.000357   0.001871  -0.000246  -0.000019   0.004104   0.628654
    13  H    0.002807   0.001956  -0.000034   0.000027  -0.007358  -0.025450
    14  H    0.000106  -0.004737  -0.003982   0.014061   0.354574  -0.011487
    15  H   -0.000180   0.004795   0.000564   0.000126   0.350075   0.004171
    16  H   -0.000001   0.003648  -0.000002   0.290727   0.001403   0.000145
              13         14         15         16
     1  C   -0.003826  -0.000903  -0.005061  -0.001103
     2  C   -0.003597   0.009527   0.004326  -0.000634
     3  C    0.345123  -0.004952  -0.003952   0.000052
     4  H    0.001038  -0.000119  -0.000403   0.000016
     5  C   -0.002996  -0.000146  -0.018064  -0.002471
     6  H   -0.000367  -0.000310  -0.000258   0.000016
     7  H    0.002807   0.000106  -0.000180  -0.000001
     8  O    0.001956  -0.004737   0.004795   0.003648
     9  H   -0.000034  -0.003982   0.000564  -0.000002
    10  O    0.000027   0.014061   0.000126   0.290727
    11  C   -0.007358   0.354574   0.350075   0.001403
    12  H   -0.025450  -0.011487   0.004171   0.000145
    13  H    0.660699   0.002929  -0.011315  -0.000008
    14  H    0.002929   0.615208  -0.021760  -0.001077
    15  H   -0.011315  -0.021760   0.667949  -0.000011
    16  H   -0.000008  -0.001077  -0.000011   0.536833
          Atomic-Atomic Spin Densities.
               1          2          3          4          5          6
     1  C    0.834381  -0.047621  -0.038009   0.001054  -0.019607  -0.005561
     2  C   -0.047621  -0.041247   0.002511   0.000715   0.019790   0.005876
     3  C   -0.038009   0.002511  -0.036339   0.000659  -0.000565   0.000283
     4  H    0.001054   0.000715   0.000659  -0.030673   0.000658   0.000589
     5  C   -0.019607   0.019790  -0.000565   0.000658   0.035622   0.003022
     6  H   -0.005561   0.005876   0.000283   0.000589   0.003022   0.006061
     7  H   -0.009746  -0.012051  -0.000051  -0.000901  -0.010969  -0.005508
     8  O   -0.030889   0.014380   0.004931   0.000469  -0.006881  -0.000646
     9  H    0.003052   0.000238  -0.000565  -0.000013  -0.002987  -0.000414
    10  O    0.010007  -0.000960  -0.000988  -0.000058   0.004628  -0.000157
    11  C   -0.018999   0.005500   0.006876   0.000257   0.003447   0.000216
    12  H   -0.011619   0.001206   0.003114   0.000881  -0.000544   0.000048
    13  H   -0.011311  -0.002156   0.009743  -0.000783   0.000001  -0.000114
    14  H    0.000429  -0.000477   0.000252  -0.000001   0.000783   0.000001
    15  H    0.000249  -0.000076  -0.000379   0.000004  -0.000348   0.000005
    16  H   -0.001289   0.000134   0.000132   0.000013  -0.000096   0.000023
               7          8          9         10         11         12
     1  C   -0.009746  -0.030889   0.003052   0.010007  -0.018999  -0.011619
     2  C   -0.012051   0.014380   0.000238  -0.000960   0.005500   0.001206
     3  C   -0.000051   0.004931  -0.000565  -0.000988   0.006876   0.003114
     4  H   -0.000901   0.000469  -0.000013  -0.000058   0.000257   0.000881
     5  C   -0.010969  -0.006881  -0.002987   0.004628   0.003447  -0.000544
     6  H   -0.005508  -0.000646  -0.000414  -0.000157   0.000216   0.000048
     7  H    0.082936  -0.000062   0.001135   0.000159  -0.003571  -0.000473
     8  O   -0.000062  -0.021099   0.000901  -0.099175   0.004539   0.002109
     9  H    0.001135   0.000901  -0.005140  -0.000788   0.000876  -0.000070
    10  O    0.000159  -0.099175  -0.000788   0.587784  -0.000468  -0.000513
    11  C   -0.003571   0.004539   0.000876  -0.000468   0.008417   0.005308
    12  H   -0.000473   0.002109  -0.000070  -0.000513   0.005308   0.019413
    13  H    0.003159  -0.000339   0.000090   0.000045  -0.007531  -0.007417
    14  H    0.000021   0.000222   0.000258  -0.000975  -0.000283  -0.000119
    15  H    0.000060  -0.000015  -0.000084  -0.000029   0.001421  -0.000017
    16  H   -0.000018   0.005532  -0.000009   0.001188   0.000024   0.000096
              13         14         15         16
     1  C   -0.011311   0.000429   0.000249  -0.001289
     2  C   -0.002156  -0.000477  -0.000076   0.000134
     3  C    0.009743   0.000252  -0.000379   0.000132
     4  H   -0.000783  -0.000001   0.000004   0.000013
     5  C    0.000001   0.000783  -0.000348  -0.000096
     6  H   -0.000114   0.000001   0.000005   0.000023
     7  H    0.003159   0.000021   0.000060  -0.000018
     8  O   -0.000339   0.000222  -0.000015   0.005532
     9  H    0.000090   0.000258  -0.000084  -0.000009
    10  O    0.000045  -0.000975  -0.000029   0.001188
    11  C   -0.007531  -0.000283   0.001421   0.000024
    12  H   -0.007417  -0.000119  -0.000017   0.000096
    13  H    0.042888   0.000111   0.000123  -0.000009
    14  H    0.000111  -0.002005   0.000098   0.000072
    15  H    0.000123   0.000098  -0.001828   0.000001
    16  H   -0.000009   0.000072   0.000001  -0.016015
 Mulliken charges and spin densities:
               1          2
     1  C   -0.136766   0.654521
     2  C    0.054472  -0.054237
     3  C    0.037152  -0.048394
     4  H    0.050537  -0.027130
     5  C    0.008873   0.025955
     6  H    0.056696   0.003724
     7  H    0.044760   0.044120
     8  O   -0.313801  -0.126023
     9  H    0.046669  -0.003520
    10  O   -0.264313   0.499701
    11  C    0.066496   0.006029
    12  H    0.054318   0.011403
    13  H    0.040374   0.026499
    14  H    0.053069  -0.001612
    15  H    0.028999  -0.000816
    16  H    0.172466  -0.010220
 Sum of Mulliken charges =  -0.00000   1.00000
 Mulliken charges and spin densities with hydrogens summed into heavy atoms:
               1          2
     1  C   -0.086230   0.627391
     2  C    0.155927  -0.006393
     3  C    0.131844  -0.010492
     5  C    0.055542   0.022434
     8  O   -0.313801  -0.126023
    10  O   -0.091847   0.489481
    11  C    0.148564   0.003601
 APT charges:
               1
     1  C   -0.614694
     2  C   -0.560581
     3  C   -0.519577
     4  H    0.468853
     5  C   -0.367508
     6  H    0.367923
     7  H    0.364438
     8  O   -0.214708
     9  H    0.368809
    10  O   -0.653009
    11  C   -0.583288
    12  H    0.317337
    13  H    0.436674
    14  H    0.287538
    15  H    0.377439
    16  H    0.524352
 Sum of APT charges =  -0.00000
 APT charges with hydrogens summed into heavy atoms:
               1
     1  C   -0.145841
     2  C    0.171780
     3  C    0.234434
     5  C    0.001302
     8  O   -0.214708
    10  O   -0.128657
    11  C    0.081689
 Electronic spatial extent (au):  <R**2>=            695.4013
 Charge=             -0.0000 electrons
 Dipole moment (field-independent basis, Debye):
    X=              2.2477    Y=             -0.2442    Z=             -0.5007  Tot=              2.3157
 Quadrupole moment (field-independent basis, Debye-Ang):
   XX=            -42.3086   YY=            -41.9420   ZZ=            -39.2084
   XY=              0.1189   XZ=              2.4158   YZ=             -0.3052
 Traceless Quadrupole moment (field-independent basis, Debye-Ang):
   XX=             -1.1556   YY=             -0.7890   ZZ=              1.9446
   XY=              0.1189   XZ=              2.4158   YZ=             -0.3052
 Octapole moment (field-independent basis, Debye-Ang**2):
  XXX=            -15.1813  YYY=             -2.6615  ZZZ=             -5.7738  XYY=             -3.0715
  XXY=             -1.7902  XXZ=            -11.5670  XZZ=             -7.9059  YZZ=             -1.1077
  YYZ=             -1.4208  XYZ=              1.0447
 Hexadecapole moment (field-independent basis, Debye-Ang**3):
 XXXX=           -429.9399 YYYY=           -241.0863 ZZZZ=           -169.1982 XXXY=              5.9413
 XXXZ=             38.7431 YYYX=             -2.3051 YYYZ=             -0.7506 ZZZX=              6.6411
 ZZZY=              2.1614 XXYY=           -119.2565 XXZZ=            -88.5806 YYZZ=            -69.0800
 XXYZ=              1.9172 YYXZ=             -0.0749 ZZXY=             -1.0946
 N-N= 3.262739166316D+02 E-N=-1.460095942015D+03  KE= 3.426062666944D+02
  Exact polarizability:       0.000       0.000       0.000       0.000       0.000       0.000
 Approx polarizability:     100.583      -6.735      59.427      -5.041       2.298      63.695
                          Isotropic Fermi Contact Couplings
        Atom                 a.u.       MegaHertz       Gauss      10(-4) cm-1
     1  C(13)              0.15317     172.18894      61.44129      57.43605
     2  C(13)             -0.02848     -32.02089     -11.42585     -10.68102
     3  C(13)             -0.02522     -28.34866     -10.11551      -9.45610
     4  H(1)              -0.00855     -38.19788     -13.62995     -12.74144
     5  C(13)              0.01556      17.48704       6.23981       5.83305
     6  H(1)               0.00204       9.12052       3.25443       3.04228
     7  H(1)               0.01813      81.03897      28.91672      27.03169
     8  O(17)              0.55596    -337.01869    -120.25665    -112.41733
     9  H(1)              -0.00116      -5.16570      -1.84325      -1.72309
    10  O(17)              0.18948    -114.86188     -40.98558     -38.31380
    11  C(13)              0.00289       3.24864       1.15920       1.08363
    12  H(1)               0.00476      21.27924       7.59296       7.09799
    13  H(1)               0.01263      56.47151      20.15044      18.83687
    14  H(1)              -0.00035      -1.55687      -0.55553      -0.51932
    15  H(1)              -0.00023      -1.03238      -0.36838      -0.34437
    16  H(1)              -0.00679     -30.36289     -10.83424     -10.12797
 --------------------------------------------------------
       Center         ----  Spin Dipole Couplings  ----
                      3XX-RR        3YY-RR        3ZZ-RR
 --------------------------------------------------------
     1   Atom        0.682160     -0.356713     -0.325447
     2   Atom        0.003712     -0.002038     -0.001674
     3   Atom        0.001134      0.003596     -0.004730
     4   Atom        0.000575     -0.027765      0.027189
     5   Atom        0.016423     -0.004156     -0.012267
     6   Atom       -0.003889      0.004162     -0.000273
     7   Atom       -0.002969     -0.003624      0.006593
     8   Atom       -0.777518      0.679405      0.098113
     9   Atom        0.002426     -0.005140      0.002714
    10   Atom        1.582194     -0.842929     -0.739265
    11   Atom        0.002078     -0.003044      0.000966
    12   Atom       -0.003134      0.009258     -0.006124
    13   Atom        0.000190      0.005786     -0.005976
    14   Atom        0.001345      0.001778     -0.003124
    15   Atom       -0.001122     -0.000621      0.001743
    16   Atom       -0.004945     -0.060634      0.065579
 --------------------------------------------------------
                        XY            XZ            YZ
 --------------------------------------------------------
     1   Atom       -0.032931      0.195822     -0.006359
     2   Atom       -0.002706      0.002385     -0.005768
     3   Atom        0.004735      0.003197      0.001499
     4   Atom       -0.010281     -0.011186      0.036414
     5   Atom       -0.028286     -0.004575     -0.006340
     6   Atom        0.000880     -0.001590     -0.007215
     7   Atom       -0.000364      0.003824     -0.003609
     8   Atom       -0.132271      0.642037     -0.226598
     9   Atom       -0.002749      0.001028     -0.004091
    10   Atom       -0.684895     -0.806583      0.249586
    11   Atom       -0.000327     -0.005230      0.005549
    12   Atom       -0.000060     -0.001178     -0.003960
    13   Atom        0.005824      0.000852      0.002528
    14   Atom        0.001718      0.000227      0.003748
    15   Atom        0.000453      0.000785      0.003766
    16   Atom        0.003714      0.045964      0.033042
 --------------------------------------------------------


 ---------------------------------------------------------------------------------
              Anisotropic Spin Dipole Couplings in Principal Axis System
 ---------------------------------------------------------------------------------

       Atom             a.u.   MegaHertz   Gauss  10(-4) cm-1        Axes

              Baa    -0.3622   -48.600   -17.342   -16.211 -0.1829  0.0409  0.9823
     1 C(13)  Bbb    -0.3578   -48.007   -17.130   -16.013  0.0381  0.9987 -0.0345
              Bcc     0.7199    96.607    34.472    32.225  0.9824 -0.0311  0.1842
 
              Baa    -0.0076    -1.025    -0.366    -0.342  0.0277  0.7239  0.6894
     2 C(13)  Bbb     0.0002     0.030     0.011     0.010  0.7163  0.4667 -0.5188
              Bcc     0.0074     0.995     0.355     0.332  0.6973 -0.5081  0.5056
 
              Baa    -0.0062    -0.829    -0.296    -0.276 -0.4405  0.0762  0.8945
     3 C(13)  Bbb    -0.0019    -0.251    -0.089    -0.084 -0.6471  0.6637 -0.3752
              Bcc     0.0080     1.080     0.385     0.360  0.6223  0.7441  0.2430
 
              Baa    -0.0463   -24.705    -8.816    -8.241  0.0942  0.8977 -0.4304
     4 H(1)   Bbb    -0.0034    -1.804    -0.644    -0.602  0.9536  0.0428  0.2979
              Bcc     0.0497    26.509     9.459     8.843 -0.2859  0.4385  0.8520
 
              Baa    -0.0279    -3.741    -1.335    -1.248  0.5136  0.7320  0.4477
     5 C(13)  Bbb    -0.0084    -1.121    -0.400    -0.374 -0.2550 -0.3680  0.8942
              Bcc     0.0362     4.862     1.735     1.622  0.8193 -0.5734 -0.0023
 
              Baa    -0.0059    -3.155    -1.126    -1.052  0.3786  0.5168  0.7678
     6 H(1)   Bbb    -0.0038    -2.017    -0.720    -0.673  0.9176 -0.3181 -0.2383
              Bcc     0.0097     5.172     1.846     1.725  0.1211  0.7948 -0.5947
 
              Baa    -0.0053    -2.826    -1.008    -0.943 -0.5383  0.7426  0.3985
     7 H(1)   Bbb    -0.0036    -1.938    -0.691    -0.646  0.7868  0.6123 -0.0781
              Bcc     0.0089     4.764     1.700     1.589  0.3020 -0.2715  0.9138
 
              Baa    -1.1169    80.817    28.837    26.957  0.8846  0.0063 -0.4663
     8 O(17)  Bbb     0.2697   -19.516    -6.964    -6.510  0.3898  0.5389  0.7468
              Bcc     0.8472   -61.301   -21.874   -20.448 -0.2560  0.8424 -0.4742
 
              Baa    -0.0074    -3.928    -1.402    -1.310  0.2195  0.9116  0.3477
     9 H(1)   Bbb     0.0016     0.828     0.295     0.276  0.8035  0.0332 -0.5943
              Bcc     0.0058     3.100     1.106     1.034  0.5533 -0.4098  0.7252
 
              Baa    -1.0471    75.770    27.036    25.274  0.0502  0.8361 -0.5463
    10 O(17)  Bbb    -0.9730    70.407    25.123    23.485  0.3791  0.4901  0.7849
              Bcc     2.0202  -146.177   -52.160   -48.759  0.9240 -0.2465 -0.2924
 
              Baa    -0.0078    -1.052    -0.375    -0.351 -0.3099  0.7104 -0.6319
    11 C(13)  Bbb    -0.0005    -0.066    -0.024    -0.022  0.7298  0.6037  0.3208
              Bcc     0.0083     1.118     0.399     0.373 -0.6093  0.3618  0.7056
 
              Baa    -0.0074    -3.948    -1.409    -1.317  0.2625  0.2241  0.9386
    12 H(1)   Bbb    -0.0028    -1.506    -0.537    -0.502  0.9648 -0.0776 -0.2513
              Bcc     0.0102     5.454     1.946     1.819  0.0165  0.9715 -0.2366
 
              Baa    -0.0065    -3.481    -1.242    -1.161  0.0841 -0.2384  0.9675
    13 H(1)   Bbb    -0.0033    -1.787    -0.638    -0.596  0.8507 -0.4885 -0.1943
              Bcc     0.0099     5.268     1.880     1.757  0.5190  0.8394  0.1617
 
              Baa    -0.0052    -2.781    -0.992    -0.928  0.0981 -0.4889  0.8668
    14 H(1)   Bbb     0.0006     0.317     0.113     0.106  0.8887 -0.3489 -0.2974
              Bcc     0.0046     2.463     0.879     0.822  0.4478  0.7996  0.4002
 
              Baa    -0.0034    -1.809    -0.646    -0.603  0.0459  0.8021 -0.5954
    15 H(1)   Bbb    -0.0013    -0.671    -0.240    -0.224  0.9870 -0.1284 -0.0969
              Bcc     0.0046     2.480     0.885     0.827  0.1542  0.5832  0.7976
 
              Baa    -0.0698   -37.262   -13.296   -12.429  0.1444  0.9489 -0.2806
    16 H(1)   Bbb    -0.0248   -13.208    -4.713    -4.406  0.8974 -0.2451 -0.3670
              Bcc     0.0946    50.470    18.009    16.835  0.4170  0.1988  0.8869
 

 ---------------------------------------------------------------------------------

 No NMR shielding tensors so no spin-rotation constants.
 Leave Link  601 at Fri May 23 15:21:13 2025, MaxMem=  3758096384 cpu:               0.8 elap:               0.2
 (Enter /gpfs/fs1/soft/bebop/software/custom-built/gaussian/16-c.02/g16/l701.exe)
 ... and contract with generalized density number  0.
 Compute integral second derivatives.
 R6Disp: Adding Grimme-D2 dispersion energy 2nd derivatives to the Hessian.
   1 Symmetry operations used in ECPInt.
 ECPInt:  NShTT=    2415 NPrTT=    8503 LenC2=    2411 LenP2D=    7156.
 LDataN:  DoStor=T MaxTD1= 6 Len=  172
 Leave Link  701 at Fri May 23 15:21:13 2025, MaxMem=  3758096384 cpu:               0.6 elap:               0.1
 (Enter /gpfs/fs1/soft/bebop/software/custom-built/gaussian/16-c.02/g16/l702.exe)
 L702 exits ... SP integral derivatives will be done elsewhere.
 Leave Link  702 at Fri May 23 15:21:13 2025, MaxMem=  3758096384 cpu:               0.1 elap:               0.0
 (Enter /gpfs/fs1/soft/bebop/software/custom-built/gaussian/16-c.02/g16/l703.exe)
 Integral derivatives from FoFJK, PRISM(SPDF).
 Compute integral second derivatives, UseDBF=F ICtDFT=           0.
 Calling FoFJK, ICntrl=    100127 FMM=F ISym2X=0 I1Cent= 0 IOpClX= 1 NMat=1 NMatS=1 NMatT=0.
 FoFJK:  IHMeth= 1 ICntrl=  100127 DoSepK=T KAlg= 0 I1Cent=           0 FoldK=F
 IRaf=         1 NMat=       1 IRICut=       1 DoRegI=T DoRafI=F ISym2E= 0 IDoP0=0 IntGTp=1.
 FoFCou: FMM=F IPFlag=           0 FMFlag=      100000 FMFlg1=         800
         NFxFlg=           0 DoJE=F BraDBF=F KetDBF=F FulRan=T
         wScrn=  0.000000 ICntrl=    100527 IOpCl=  0 I1Cent=           0 NGrid=           0
         NMat0=    1 NMatS0=      1 NMatT0=    0 NMatD0=    1 NMtDS0=    0 NMtDT0=    0
 Symmetry not used in FoFCou.
 Leave Link  703 at Fri May 23 15:21:48 2025, MaxMem=  3758096384 cpu:             209.5 elap:              35.0
 (Enter /gpfs/fs1/soft/bebop/software/custom-built/gaussian/16-c.02/g16/l716.exe)
 Dipole        = 8.84296083D-01-9.60597303D-02-1.96998095D-01
 Polarizability= 0.00000000D+00 0.00000000D+00 0.00000000D+00
                 0.00000000D+00 0.00000000D+00 0.00000000D+00
 ***** Axes restored to original set *****
 -------------------------------------------------------------------
 Center     Atomic                   Forces (Hartrees/Bohr)
 Number     Number              X              Y              Z
 -------------------------------------------------------------------
      1        6          -0.002533685    0.001471017   -0.000792260
      2        6          -0.001235876   -0.002169642    0.002763031
      3        6           0.001745676   -0.001837000   -0.002695896
      4        1           0.000536569   -0.000263027    0.000364849
      5        6          -0.000290642    0.000765974    0.001521332
      6        1           0.000325189   -0.000287088   -0.000087894
      7        1          -0.000180537    0.000420360   -0.000163116
      8        8           0.000152493    0.000195030   -0.001134366
      9        1          -0.000104472   -0.000546567   -0.000397004
     10        8          -0.001456393    0.001269796   -0.000959208
     11        6           0.002527776    0.000843881    0.000196681
     12        1          -0.000150580   -0.000051975    0.000385133
     13        1          -0.000234512    0.000443107    0.000146108
     14        1           0.000080474   -0.000387093    0.000091339
     15        1          -0.000249679    0.000159485   -0.000079747
     16        1           0.001068197   -0.000026258    0.000841020
 -------------------------------------------------------------------
 Cartesian Forces:  Max     0.002763031 RMS     0.001088206
 -----------------------------------------------------------------------------------------------
                       Internal Coordinate Forces (Hartree/Bohr or radian)
  Cent   Atom   N1       Length/X         N2         Alpha/Y        N3         Beta/Z          J
 -----------------------------------------------------------------------------------------------
      1  C 
      2  C        1   0.002384(     1)
      3  C        1   0.004147(     2)      2   0.006569(    16)
      4  H        1  -0.000573(     3)      2  -0.000083(    17)      3  -0.000674(    30)     0
      5  C        2   0.000963(     4)      1   0.001808(    18)      3   0.004760(    31)     0
      6  H        2  -0.000383(     5)      1   0.000151(    19)      5   0.000397(    32)     0
      7  H        2  -0.000483(     6)      1   0.000092(    20)      5   0.000038(    33)     0
      8  O        5   0.001674(     7)      2   0.001051(    21)      1  -0.000728(    34)     0
      9  H        5  -0.000639(     8)      2  -0.000402(    22)      8   0.000259(    35)     0
     10  O        8   0.000984(     9)      5   0.001442(    23)      2  -0.001391(    36)     0
     11  C        3   0.001533(    10)      1   0.005633(    24)      2  -0.000064(    37)     0
     12  H        3  -0.000380(    11)      1  -0.000279(    25)     11   0.000207(    38)     0
     13  H        3  -0.000510(    12)      1  -0.000190(    26)     11  -0.000134(    39)     0
     14  H       11  -0.000297(    13)      3   0.000061(    27)      1  -0.000726(    40)     0
     15  H       11  -0.000288(    14)      3   0.000044(    28)     14  -0.000200(    41)     0
     16  H       10  -0.001248(    15)      8   0.000972(    29)      5  -0.000163(    42)     0
 -----------------------------------------------------------------------------------------------
 Internal  Forces:  Max     0.006569400 RMS     0.001840324
 Leave Link  716 at Fri May 23 15:21:48 2025, MaxMem=  3758096384 cpu:               0.2 elap:               0.0
 (Enter /gpfs/fs1/soft/bebop/software/custom-built/gaussian/16-c.02/g16/l103.exe)

 GradGradGradGradGradGradGradGradGradGradGradGradGradGradGradGradGradGrad
 Berny optimization.
 Search for a saddle point.
 Step number   1 out of a maximum of   60
 All quantities printed in internal units (Hartrees-Bohrs-Radians)
 Swapping is turned off.
 Second derivative matrix not updated -- analytic derivatives used.
 ITU=  0
     Eigenvalues ---   -0.69251   0.00236   0.02830   0.04639   0.05282
     Eigenvalues ---    0.07057   0.08597   0.08822   0.11278   0.12426
     Eigenvalues ---    0.13669   0.14313   0.14988   0.16232   0.17296
     Eigenvalues ---    0.18366   0.19988   0.20991   0.23480   0.23835
[...]
  Beta virt. eigenvalues --    3.85322
          Condensed to atoms (all electrons):
               1          2          3          4          5          6
     1  C    5.259357   0.279301   0.362931   0.409689  -0.106686  -0.027733
     2  C    0.279301   4.873402  -0.105963  -0.023830   0.308245   0.369792
     3  C    0.362931  -0.105963   4.743945  -0.042964  -0.014168   0.009753
     4  H    0.409689  -0.023830  -0.042964   0.605887   0.001044  -0.005478
     5  C   -0.106686   0.308245  -0.014168   0.001044   4.960120   0.003072
     6  H   -0.027733   0.369792   0.009753  -0.005478   0.003072   0.616581
     7  H   -0.006484   0.362740  -0.011768   0.001018  -0.040025  -0.025123
     8  O    0.079563  -0.062859  -0.021740  -0.003072   0.164853   0.001518
     9  H    0.016045  -0.032445   0.009156  -0.000512   0.404615  -0.004481
    10  O    0.009092   0.003377  -0.001773  -0.000031  -0.010684  -0.000202
    11  C   -0.110522  -0.044602   0.336411   0.011350   0.350122   0.006141
    12  H   -0.017872   0.009504   0.363759  -0.003459  -0.006992  -0.000233
    13  H   -0.004138  -0.003592   0.345800   0.000997  -0.002851  -0.000359
    14  H   -0.000710   0.009535  -0.005568  -0.000122  -0.000660  -0.000310
    15  H   -0.004890   0.004319  -0.004134  -0.000399  -0.017696  -0.000260
    16  H   -0.001182  -0.000531   0.000066   0.000014  -0.002615   0.000010
               7          8          9         10         11         12
     1  C   -0.006484   0.079563   0.016045   0.009092  -0.110522  -0.017872
     2  C    0.362740  -0.062859  -0.032445   0.003377  -0.044602   0.009504
     3  C   -0.011768  -0.021740   0.009156  -0.001773   0.336411   0.363759
     4  H    0.001018  -0.003072  -0.000512  -0.000031   0.011350  -0.003459
     5  C   -0.040025   0.164853   0.404615  -0.010684   0.350122  -0.006992
     6  H   -0.025123   0.001518  -0.004481  -0.000202   0.006141  -0.000233
     7  H    0.661483   0.005604   0.000303   0.000026   0.004887  -0.000345
     8  O    0.005604   8.196555  -0.021623   0.024298  -0.056635   0.001923
     9  H    0.000303  -0.021623   0.617518   0.007271  -0.039641  -0.000236
    10  O    0.000026   0.024298   0.007271   7.932479  -0.005942  -0.000064
    11  C    0.004887  -0.056635  -0.039641  -0.005942   4.781113   0.003716
    12  H   -0.000345   0.001923  -0.000236  -0.000064   0.003716   0.628967
    13  H    0.002766   0.001911  -0.000035   0.000024  -0.007601  -0.025348
    14  H    0.000102  -0.004407  -0.003864   0.013329   0.354653  -0.011423
    15  H   -0.000222   0.004760   0.000607   0.000108   0.349512   0.004144
    16  H   -0.000001   0.003852  -0.000049   0.291045   0.001362   0.000159
              13         14         15         16
     1  C   -0.004138  -0.000710  -0.004890  -0.001182
     2  C   -0.003592   0.009535   0.004319  -0.000531
     3  C    0.345800  -0.005568  -0.004134   0.000066
     4  H    0.000997  -0.000122  -0.000399   0.000014
     5  C   -0.002851  -0.000660  -0.017696  -0.002615
     6  H   -0.000359  -0.000310  -0.000260   0.000010
     7  H    0.002766   0.000102  -0.000222  -0.000001
     8  O    0.001911  -0.004407   0.004760   0.003852
     9  H   -0.000035  -0.003864   0.000607  -0.000049
    10  O    0.000024   0.013329   0.000108   0.291045
    11  C   -0.007601   0.354653   0.349512   0.001362
    12  H   -0.025348  -0.011423   0.004144   0.000159
    13  H    0.660023   0.002970  -0.011193  -0.000009
    14  H    0.002970   0.617787  -0.021801  -0.001023
    15  H   -0.011193  -0.021801   0.668024  -0.000007
    16  H   -0.000009  -0.001023  -0.000007   0.536803
          Atomic-Atomic Spin Densities.
               1          2          3          4          5          6
     1  C    0.843770  -0.050140  -0.038183   0.000801  -0.018788  -0.005587
     2  C   -0.050140  -0.039282   0.002928   0.000889   0.019813   0.005890
     3  C   -0.038183   0.002928  -0.036647   0.000757  -0.000762   0.000279
     4  H    0.000801   0.000889   0.000757  -0.030598   0.000649   0.000594
     5  C   -0.018788   0.019813  -0.000762   0.000649   0.034848   0.002891
     6  H   -0.005587   0.005890   0.000279   0.000594   0.002891   0.005929
     7  H   -0.009222  -0.012227  -0.000098  -0.000921  -0.010350  -0.005422
     8  O   -0.029950   0.014198   0.004495   0.000462  -0.006592  -0.000550
     9  H    0.003179   0.000150  -0.000574  -0.000015  -0.003067  -0.000424
    10  O    0.009863  -0.001053  -0.000912  -0.000058   0.004398  -0.000163
    11  C   -0.019963   0.005910   0.007050   0.000278   0.003274   0.000238
    12  H   -0.011674   0.001256   0.003153   0.000896  -0.000596   0.000047
    13  H   -0.011171  -0.002287   0.009602  -0.000814   0.000074  -0.000116
    14  H    0.000447  -0.000486   0.000272  -0.000001   0.000792   0.000001
    15  H    0.000276  -0.000089  -0.000376   0.000003  -0.000365   0.000002
    16  H   -0.001315   0.000135   0.000135   0.000014  -0.000093   0.000022
               7          8          9         10         11         12
     1  C   -0.009222  -0.029950   0.003179   0.009863  -0.019963  -0.011674
     2  C   -0.012227   0.014198   0.000150  -0.001053   0.005910   0.001256
     3  C   -0.000098   0.004495  -0.000574  -0.000912   0.007050   0.003153
     4  H   -0.000921   0.000462  -0.000015  -0.000058   0.000278   0.000896
     5  C   -0.010350  -0.006592  -0.003067   0.004398   0.003274  -0.000596
     6  H   -0.005422  -0.000550  -0.000424  -0.000163   0.000238   0.000047
     7  H    0.081370  -0.000088   0.001165   0.000155  -0.003763  -0.000468
     8  O   -0.000088  -0.031784   0.000792  -0.097295   0.004813   0.001994
     9  H    0.001165   0.000792  -0.004879  -0.000642   0.000789  -0.000072
    10  O    0.000155  -0.097295  -0.000642   0.587370  -0.000603  -0.000466
    11  C   -0.003763   0.004813   0.000789  -0.000603   0.009039   0.005394
    12  H   -0.000468   0.001994  -0.000072  -0.000466   0.005394   0.019365
    13  H    0.003170  -0.000317   0.000092   0.000042  -0.007687  -0.007427
    14  H    0.000027   0.000148   0.000246  -0.000871  -0.000291  -0.000133
    15  H    0.000100  -0.000019  -0.000081  -0.000023   0.001330  -0.000027
    16  H   -0.000018   0.005446  -0.000007   0.001309   0.000037   0.000099
              13         14         15         16
     1  C   -0.011171   0.000447   0.000276  -0.001315
     2  C   -0.002287  -0.000486  -0.000089   0.000135
     3  C    0.009602   0.000272  -0.000376   0.000135
     4  H   -0.000814  -0.000001   0.000003   0.000014
     5  C    0.000074   0.000792  -0.000365  -0.000093
     6  H   -0.000116   0.000001   0.000002   0.000022
     7  H    0.003170   0.000027   0.000100  -0.000018
     8  O   -0.000317   0.000148  -0.000019   0.005446
     9  H    0.000092   0.000246  -0.000081  -0.000007
    10  O    0.000042  -0.000871  -0.000023   0.001309
    11  C   -0.007687  -0.000291   0.001330   0.000037
    12  H   -0.007427  -0.000133  -0.000027   0.000099
    13  H    0.043231   0.000122   0.000172  -0.000009
    14  H    0.000122  -0.001981   0.000089   0.000063
    15  H    0.000172   0.000089  -0.001740   0.000001
    16  H   -0.000009   0.000063   0.000001  -0.016014
 Mulliken charges and spin densities:
               1          2
     1  C   -0.135761   0.662343
     2  C    0.053606  -0.054394
     3  C    0.036255  -0.048879
     4  H    0.049868  -0.027063
     5  C    0.010306   0.026128
     6  H    0.057314   0.003632
     7  H    0.045040   0.043411
     8  O   -0.314502  -0.134246
     9  H    0.047370  -0.003346
    10  O   -0.262352   0.501052
    11  C    0.065675   0.005844
    12  H    0.053801   0.011342
    13  H    0.040633   0.026677
    14  H    0.051512  -0.001556
    15  H    0.029127  -0.000746
    16  H    0.172106  -0.010195
 Sum of Mulliken charges =  -0.00000   1.00000
 Mulliken charges and spin densities with hydrogens summed into heavy atoms:
               1          2
     1  C   -0.085893   0.635280
     2  C    0.155960  -0.007352
     3  C    0.130689  -0.010860
     5  C    0.057676   0.022781
     8  O   -0.314502  -0.134246
    10  O   -0.090246   0.490856
    11  C    0.146315   0.003541
 Electronic spatial extent (au):  <R**2>=            698.9357
 Charge=             -0.0000 electrons
 Dipole moment (field-independent basis, Debye):
    X=              2.2897    Y=             -0.1254    Z=             -0.5242  Tot=              2.3523
 Quadrupole moment (field-independent basis, Debye-Ang):
   XX=            -42.5283   YY=            -41.9105   ZZ=            -39.1250
   XY=             -0.3252   XZ=              2.5058   YZ=             -0.4865
 Traceless Quadrupole moment (field-independent basis, Debye-Ang):
   XX=             -1.3404   YY=             -0.7226   ZZ=              2.0629
   XY=             -0.3252   XZ=              2.5058   YZ=             -0.4865
 Octapole moment (field-independent basis, Debye-Ang**2):
  XXX=            -14.2633  YYY=             -2.6353  ZZZ=             -5.8294  XYY=             -3.1492
  XXY=             -0.5521  XXZ=            -11.7029  XZZ=             -8.1686  YZZ=             -0.9034
  YYZ=             -1.4798  XYZ=              1.5477
 Hexadecapole moment (field-independent basis, Debye-Ang**3):
 XXXX=           -436.9261 YYYY=           -240.8534 ZZZZ=           -169.2328 XXXY=              2.1722
 XXXZ=             39.0684 YYYX=             -2.5771 YYYZ=             -0.8977 ZZZX=              7.0376
 ZZZY=              1.8240 XXYY=           -120.0513 XXZZ=            -88.7012 YYZZ=            -69.0549
 XXYZ=              0.4338 YYXZ=              0.0004 ZZXY=             -1.7170
 N-N= 3.256763473242D+02 E-N=-1.458880483134D+03  KE= 3.425843745380D+02
                          Isotropic Fermi Contact Couplings
        Atom                 a.u.       MegaHertz       Gauss      10(-4) cm-1
     1  C(13)              0.15836     178.02254      63.52287      59.38193
     2  C(13)             -0.02830     -31.81837     -11.35359     -10.61347
     3  C(13)             -0.02551     -28.67631     -10.23242      -9.56539
     4  H(1)              -0.00849     -37.96308     -13.54617     -12.66312
     5  C(13)              0.01544      17.36276       6.19546       5.79159
     6  H(1)               0.00197       8.78572       3.13496       2.93060
     7  H(1)               0.01789      79.96387      28.53310      26.67308
     8  O(17)              0.55768    -338.06332    -120.62940    -112.76578
     9  H(1)              -0.00112      -5.01745      -1.79035      -1.67364
    10  O(17)              0.18342    -111.18864     -39.67487     -37.08854
    11  C(13)              0.00320       3.59944       1.28437       1.20064
    12  H(1)               0.00477      21.31982       7.60744       7.11153
    13  H(1)               0.01271      56.80033      20.26777      18.94655
    14  H(1)              -0.00034      -1.50607      -0.53740      -0.50237
    15  H(1)              -0.00022      -0.99456      -0.35488      -0.33175
    16  H(1)              -0.00678     -30.32784     -10.82173     -10.11628
 --------------------------------------------------------
       Center         ----  Spin Dipole Couplings  ----
                      3XX-RR        3YY-RR        3ZZ-RR
 --------------------------------------------------------
     1   Atom        0.686605     -0.358972     -0.327633
     2   Atom        0.003411     -0.001852     -0.001559
     3   Atom        0.001308      0.003237     -0.004544
     4   Atom        0.000389     -0.027495      0.027106
     5   Atom        0.015956     -0.003606     -0.012350
     6   Atom       -0.003850      0.004048     -0.000198
     7   Atom       -0.002999     -0.003656      0.006655
     8   Atom       -0.760904      0.649655      0.111249
     9   Atom        0.002569     -0.005195      0.002626
    10   Atom        1.585415     -0.841455     -0.743959
    11   Atom        0.001866     -0.003002      0.001135
    12   Atom       -0.003302      0.009441     -0.006139
    13   Atom        0.000397      0.005600     -0.005996
    14   Atom        0.001268      0.001749     -0.003017
    15   Atom       -0.001154     -0.000575      0.001729
    16   Atom       -0.008133     -0.065705      0.073838
 --------------------------------------------------------
                        XY            XZ            YZ
 --------------------------------------------------------
     1   Atom       -0.047568      0.200156     -0.009394
     2   Atom       -0.002943      0.002951     -0.006085
     3   Atom        0.004943      0.003376      0.001505
     4   Atom       -0.011077     -0.011089      0.037009
     5   Atom       -0.028141     -0.004902     -0.006001
     6   Atom        0.001025     -0.001699     -0.007305
     7   Atom       -0.000302      0.003796     -0.003635
     8   Atom       -0.108356      0.639715     -0.215166
     9   Atom       -0.002726      0.001109     -0.003923
    10   Atom       -0.681717     -0.796184      0.238685
    11   Atom       -0.000899     -0.005292      0.005899
    12   Atom        0.000130     -0.001165     -0.003986
    13   Atom        0.005926      0.000924      0.002537
    14   Atom        0.001475      0.000112      0.003586
    15   Atom        0.000450      0.000761      0.003780
    16   Atom       -0.003026      0.044299      0.019127
 --------------------------------------------------------


 ---------------------------------------------------------------------------------
              Anisotropic Spin Dipole Couplings in Principal Axis System
 ---------------------------------------------------------------------------------

       Atom             a.u.   MegaHertz   Gauss  10(-4) cm-1        Axes

              Baa    -0.3657   -49.077   -17.512   -16.370 -0.1831  0.0737  0.9803
     1 C(13)  Bbb    -0.3611   -48.458   -17.291   -16.164  0.0575  0.9963 -0.0641
              Bcc     0.7268    97.535    34.803    32.534  0.9814 -0.0446  0.1867
 
              Baa    -0.0078    -1.046    -0.373    -0.349  0.0046  0.7166  0.6974
     2 C(13)  Bbb    -0.0003    -0.040    -0.014    -0.013  0.7469  0.4613 -0.4789
              Bcc     0.0081     1.086     0.387     0.362  0.6649 -0.5231  0.5331
 
              Baa    -0.0062    -0.826    -0.295    -0.276 -0.4665  0.1047  0.8783
     3 C(13)  Bbb    -0.0020    -0.272    -0.097    -0.091 -0.6065  0.6849 -0.4038
              Bcc     0.0082     1.098     0.392     0.366  0.6439  0.7210  0.2560
 
              Baa    -0.0467   -24.927    -8.894    -8.315  0.1087  0.8951 -0.4324
     4 H(1)   Bbb    -0.0035    -1.891    -0.675    -0.631  0.9516  0.0321  0.3056
              Bcc     0.0503    26.818     9.569     8.946 -0.2874  0.4447  0.8483
 
              Baa    -0.0276    -3.697    -1.319    -1.233  0.5195  0.7242  0.4534
     5 C(13)  Bbb    -0.0084    -1.130    -0.403    -0.377 -0.2543 -0.3756  0.8912
              Bcc     0.0360     4.827     1.722     1.610  0.8157 -0.5783 -0.0109
 
              Baa    -0.0060    -3.187    -1.137    -1.063  0.3633  0.5243  0.7702
     6 H(1)   Bbb    -0.0038    -2.032    -0.725    -0.678  0.9220 -0.3213 -0.2162
              Bcc     0.0098     5.219     1.862     1.741  0.1341  0.7886 -0.6001
 
              Baa    -0.0054    -2.863    -1.022    -0.955 -0.5385  0.7443  0.3951
     7 H(1)   Bbb    -0.0036    -1.919    -0.685    -0.640  0.7884  0.6105 -0.0755
              Bcc     0.0090     4.783     1.707     1.595  0.2974 -0.2708  0.9155
 
              Baa    -1.0990    79.526    28.377    26.527  0.8839 -0.0028 -0.4677
     8 O(17)  Bbb     0.2887   -20.888    -7.453    -6.968  0.3904  0.5550  0.7345
              Bcc     0.8104   -58.638   -20.924   -19.560 -0.2575  0.8318 -0.4917
 
              Baa    -0.0073    -3.887    -1.387    -1.297  0.2153  0.9160  0.3385
     9 H(1)   Bbb     0.0015     0.813     0.290     0.271  0.7816  0.0462 -0.6221
              Bcc     0.0058     3.074     1.097     1.025  0.5855 -0.3985  0.7060
 
              Baa    -1.0379    75.103    26.799    25.052  0.0644  0.8529 -0.5181
    10 O(17)  Bbb    -0.9761    70.630    25.202    23.560  0.3730  0.4610  0.8052
              Bcc     2.0140  -145.733   -52.001   -48.611  0.9256 -0.2451 -0.2884
 
              Baa    -0.0079    -1.055    -0.377    -0.352 -0.2793  0.7195 -0.6358
    11 C(13)  Bbb    -0.0010    -0.131    -0.047    -0.044  0.7601  0.5703  0.3115
              Bcc     0.0088     1.187     0.423     0.396 -0.5868  0.3962  0.7062
 
              Baa    -0.0074    -3.947    -1.408    -1.316  0.2605  0.2205  0.9400
    12 H(1)   Bbb    -0.0030    -1.609    -0.574    -0.537  0.9650 -0.0890 -0.2466
              Bcc     0.0104     5.556     1.983     1.853  0.0292  0.9713 -0.2359
 
              Baa    -0.0066    -3.495    -1.247    -1.166  0.0748 -0.2387  0.9682
    13 H(1)   Bbb    -0.0034    -1.790    -0.639    -0.597  0.8427 -0.5040 -0.1894
              Bcc     0.0099     5.285     1.886     1.763  0.5332  0.8301  0.1634
 
              Baa    -0.0050    -2.667    -0.952    -0.890  0.0983 -0.4837  0.8697
    14 H(1)   Bbb     0.0007     0.380     0.136     0.127  0.9053 -0.3194 -0.2800
              Bcc     0.0043     2.287     0.816     0.763  0.4132  0.8149  0.4065
 
              Baa    -0.0034    -1.803    -0.643    -0.601  0.0427  0.8000 -0.5984
    15 H(1)   Bbb    -0.0013    -0.685    -0.244    -0.228  0.9878 -0.1234 -0.0945
              Bcc     0.0047     2.487     0.887     0.830  0.1495  0.5871  0.7956
 
              Baa    -0.0699   -37.297   -13.309   -12.441  0.1792  0.9665 -0.1838
    16 H(1)   Bbb    -0.0250   -13.321    -4.753    -4.443  0.9030 -0.2357 -0.3592
              Bcc     0.0949    50.618    18.062    16.884  0.3905  0.1016  0.9150
 

 ---------------------------------------------------------------------------------

 No NMR shielding tensors so no spin-rotation constants.
 Leave Link  601 at Fri May 23 15:22:37 2025, MaxMem=  3758096384 cpu:               0.8 elap:               0.2
 (Enter /gpfs/fs1/soft/bebop/software/custom-built/gaussian/16-c.02/g16/l9999.exe)
 Unable to Open any file for archive entry.
 1\1\GINC-CSED-0027\FTS\UwB97XD\def2SVP\C5H9O2(2)\COPAN\23-May-2025\1\\
 #P wb97xd/def2svp # SCF=(xqc) # POpt=(CALCFC,TS,NOEIGEN,MAXCYCLES=60) 
 # int=ultrafine\\comment:\\0,2\C\C,1,R1\C,1,R2,2,A2\H,1,R3,2,A3,3,D3,0
 \C,2,R4,1,A4,3,D4,0\H,2,R5,1,A5,5,D5,0\H,2,R6,1,A6,5,D6,0\O,5,R7,2,A7,
 1,D7,0\H,5,R8,2,A8,8,D8,0\O,8,R9,5,A9,2,D9,0\C,3,R10,1,A10,2,D10,0\H,3
 ,R11,1,A11,11,D11,0\H,3,R12,1,A12,11,D12,0\H,11,R13,3,A13,1,D13,0\H,11
 ,R14,3,A14,14,D14,0\H,10,R15,8,A15,5,D15,0\\R1=1.50342219\R2=1.5031015
 8\R3=1.09233677\R4=1.52401959\R5=1.09677328\R6=1.10595243\R7=1.4302439
 8\R8=1.09766343\R9=1.71355134\R10=1.55321612\R11=1.09922936\R12=1.1048
 5259\R13=1.09722426\R14=1.10050845\R15=0.96605902\A2=108.41268889\A3=1
 25.39081456\A4=88.36807558\A5=113.81849109\A6=114.79290098\A7=94.85142
 24\A8=120.39094018\A9=100.92531187\A10=101.2623124\A11=111.61807651\A1
 2=111.10801491\A13=112.80158852\A14=113.08381107\A15=93.90892846\D3=16
 3.02575292\D4=53.97988188\D5=113.86366819\D6=242.3203697\D7=48.4988106
 2\D8=118.84770969\D9=164.24456844\D10=329.20303397\D11=239.29317473\D1
 2=119.71884357\D13=235.69606308\D14=235.79354761\D15=175.12736233\\Ver
 sion=ES64L-G16RevC.01\State=2-A\HF=-345.8297823\S2=0.822562\S2-1=0.\S2
 A=0.75051\RMSD=5.906e-09\RMSF=9.952e-06\Dipole=-0.0788818,-0.8842905,-
 0.2613498\Quadrupole=-0.2947516,-0.6643854,0.959137,-0.696574,0.698352
 8,-1.9442192\PG=C01 [X(C5H9O2)]\\@
 The archive entry for this job was punched.


 THE NUMBERS ARE MEANINGLESS, BUT THE TRENDS ARE IMPORTANT.
     -- LARRY BURGGRAF
 Job cpu time:       0 days  0 hours 13 minutes 28.3 seconds.
 Elapsed time:       0 days  0 hours  2 minutes 24.2 seconds.
 File lengths (MBytes):  RWF=     76 Int=      0 D2E=      0 Chk=      3 Scr=      1
 Normal termination of Gaussian 16 at Fri May 23 15:22:37 2025.
