 Entering Gaussian System, Link 0=g16
 Input=run.inp
 Output=run.out
 Initial command:
 /gpfs/fs1/soft/bebop/software/custom-built/gaussian/16-c.02/g16/l1.exe "/scratch/Gau-2153305.inp" -scrdir="/scratch/"
 Default CPUs for threads: 0-35
 Default is to use a total of  36 processors:
                               36 via shared-memory
                                1 via Linda
 Entering Link 1 = /gpfs/fs1/soft/bebop/software/custom-built/gaussian/16-c.02/g16/l1.exe PID=   2153306.
  
 Copyright (c) 1988-2019, Gaussian, Inc.  All Rights Reserved.
  
 This is part of the Gaussian(R) 16 program.  It is based on
 the Gaussian(R) 09 system (copyright 2009, Gaussian, Inc.),
 the Gaussian(R) 03 system (copyright 2003, Gaussian, Inc.),
 the Gaussian(R) 98 system (copyright 1998, Gaussian, Inc.),
 the Gaussian(R) 94 system (copyright 1995, Gaussian, Inc.),
 the Gaussian 92(TM) system (copyright 1992, Gaussian, Inc.),
 the Gaussian 90(TM) system (copyright 1990, Gaussian, Inc.),
 the Gaussian 88(TM) system (copyright 1988, Gaussian, Inc.),
 the Gaussian 86(TM) system (copyright 1986, Carnegie Mellon
 University), and the Gaussian 82(TM) system (copyright 1983,
 Carnegie Mellon University). Gaussian is a federally registered
 trademark of Gaussian, Inc.
  
 This software contains proprietary and confidential information,
 including trade secrets, belonging to Gaussian, Inc.
  
 This software is provided under written license and may be
 used, copied, transmitted, or stored only in accord with that
 written license.
  
 The following legend is applicable only to US Government
 contracts under FAR:
  
                    RESTRICTED RIGHTS LEGEND
  
 Use, reproduction and disclosure by the US Government is
 subject to restrictions as set forth in subparagraphs (a)
 and (c) of the Commercial Computer Software - Restricted
 Rights clause in FAR 52.227-19.
  
 Gaussian, Inc.
 340 Quinnipiac St., Bldg. 40, Wallingford CT 06492
  
  
 ---------------------------------------------------------------
 Warning -- This program may not be used in any manner that
 competes with the business of Gaussian, Inc. or will provide
 assistance to any competitor of Gaussian, Inc.  The licensee
 of this program is prohibited from giving any competitor of
 Gaussian, Inc. access to this program.  By using this program,
 the user acknowledges that Gaussian, Inc. is engaged in the
 business of creating and licensing software in the field of
 computational chemistry and represents and warrants to the
 licensee that it is not a competitor of Gaussian, Inc. and that
 it will not use this program in any manner prohibited above.
 ---------------------------------------------------------------
  

 Cite this work as:
 Gaussian 16, Revision C.01,
 M. J. Frisch, G. W. Trucks, H. B. Schlegel, G. E. Scuseria, 
 M. A. Robb, J. R. Cheeseman, G. Scalmani, V. Barone, 
 G. A. Petersson, H. Nakatsuji, X. Li, M. Caricato, A. V. Marenich, 
 J. Bloino, B. G. Janesko, R. Gomperts, B. Mennucci, H. P. Hratchian, 
 J. V. Ortiz, A. F. Izmaylov, J. L. Sonnenberg, D. Williams-Young, 
 F. Ding, F. Lipparini, F. Egidi, J. Goings, B. Peng, A. Petrone, 
 T. Henderson, D. Ranasinghe, V. G. Zakrzewski, J. Gao, N. Rega, 
 G. Zheng, W. Liang, M. Hada, M. Ehara, K. Toyota, R. Fukuda, 
 J. Hasegawa, M. Ishida, T. Nakajima, Y. Honda, O. Kitao, H. Nakai, 
 T. Vreven, K. Throssell, J. A. Montgomery, Jr., J. E. Peralta, 
 F. Ogliaro, M. J. Bearpark, J. J. Heyd, E. N. Brothers, K. N. Kudin, 
 V. N. Staroverov, T. A. Keith, R. Kobayashi, J. Normand, 
 K. Raghavachari, A. P. Rendell, J. C. Burant, S. S. Iyengar, 
 J. Tomasi, M. Cossi, J. M. Millam, M. Klene, C. Adamo, R. Cammi, 
 J. W. Ochterski, R. L. Martin, K. Morokuma, O. Farkas, 
 J. B. Foresman, and D. J. Fox, Gaussian, Inc., Wallingford CT, 2019.
 
 ******************************************
 Gaussian 16:  ES64L-G16RevC.01  3-Jul-2019
                20-May-2025 
 ******************************************
 %mem=28GB
 %NProcShared=6
 Will use up to    6 processors via shared memory.
 -------------------------------------------------------
 #P wb97xd/def2svp # SCF=(xqc) # POpt=() # int=ultrafine
 -------------------------------------------------------
 1/10=7,26=4,38=1/1,3;
 2/12=2,17=6,18=5,29=3,40=1/2;
 3/5=43,7=101,11=2,25=1,30=1,71=1,74=-58,75=-5/1,2,3;
 4//1;
 5/5=2,8=3,13=1,38=5/2,8;
 6/7=2,8=2,9=2,10=2,28=1/1;
 7/29=1/1,2,3,16;
 1/10=7,26=4/3(2);
 2/29=3/2;
 99//99;
 2/29=3/2;
 3/5=43,7=101,11=2,25=1,30=1,71=1,74=-58,75=-5/1,2,3;
 4/5=5,16=3,69=1/1;
 5/5=2,8=3,13=1,38=5/2,8;
 7//1,2,3,16;
 1/26=4/3(-5);
 2/29=3/2;
 6/7=2,8=2,9=2,10=2,19=2,28=1/1;
 99/9=1/99;
 Leave Link    1 at Tue May 20 10:46:33 2025, MaxMem=  3758096384 cpu:               0.3 elap:               0.0
 (Enter /gpfs/fs1/soft/bebop/software/custom-built/gaussian/16-c.02/g16/l101.exe)
 --------
 comment:
 --------
 Symbolic Z-matrix:
 Charge =  0 Multiplicity = 2
 C
 C                    1    R1
 H                    1    R2       2    A2
 C                    2    R3       1    A3       3    D3       0
 H                    2    R4       1    A4       4    D4       0
 C                    4    R5       2    A5       1    D5       0
 H                    4    R6       2    A6       6    D6       0
 C                    6    R7       4    A7       2    D7       0
 H                    6    R8       4    A8       8    D8       0
 H                    6    R9       4    A9       8    D9       0
 H                    8    R10      6    A10      4    D10      0
 O                    8    R11      6    A11      11   D11      0
 O                    12   R12      8    A12      1    D12      0
 H                    13   R13      12   A13      8    D13      0
       Variables:
  R1                    1.49867                  
  R2                    1.08367                  
  R3                    1.56122                  
  R4                    1.09021                  
  R5                    1.5107                   
  R6                    1.09278                  
  R8                    1.08262                  
  R9                    1.08344                  
  R10                   1.08526                  
  R11                   1.38692                  
  R12                   1.45722                  
  R13                   0.9671                   
  A2                  119.07871                  
  A3                  101.93138                  
  A4                  113.24892                  
  A5                  109.14274                  
  A6                  108.38096                  
  A7                   96.76097                  
  A8                  118.57913                  
  A9                  118.60759                  
  A10                 110.86425                  
  A11                  95.26725                  
  A12                 107.13757                  
  A13                  98.9831                   
  D3                  275.28198                  
  D4                  120.04586                  
  D5                  322.17075                  
  D6                  119.49575                  
  D7                   12.32688                  
  D8                  260.58983                  
  D9                  112.74973                  
  D10                 143.00128                  
  D11                 117.56736                  
  D12                 199.86179                  
  D13                 232.09366                  
       Constants:
  R7                    2.22548                  
 
 ITRead=  0  0  0  0  0  0  0  0  0  0  0  0  0  0
 MicOpt= -1 -1 -1 -1 -1 -1 -1 -1 -1 -1 -1 -1 -1 -1
 NAtoms=     14 NQM=       14 NQMF=       0 NMMI=      0 NMMIF=      0
                NMic=       0 NMicF=      0.
                    Isotopes and Nuclear Properties:
 (Nuclear quadrupole moments (NQMom) in fm**2, nuclear magnetic moments (NMagM)
  in nuclear magnetons)

  Atom         1           2           3           4           5           6           7           8           9          10
 IAtWgt=          12          12           1          12           1          12           1          12           1           1
 AtmWgt=  12.0000000  12.0000000   1.0078250  12.0000000   1.0078250  12.0000000   1.0078250  12.0000000   1.0078250   1.0078250
 NucSpn=           0           0           1           0           1           0           1           0           1           1
 AtZEff=  -0.0000000  -0.0000000  -0.0000000  -0.0000000  -0.0000000  -0.0000000  -0.0000000  -0.0000000  -0.0000000  -0.0000000
 NQMom=    0.0000000   0.0000000   0.0000000   0.0000000   0.0000000   0.0000000   0.0000000   0.0000000   0.0000000   0.0000000
 NMagM=    0.0000000   0.0000000   2.7928460   0.0000000   2.7928460   0.0000000   2.7928460   0.0000000   2.7928460   2.7928460
 AtZNuc=   6.0000000   6.0000000   1.0000000   6.0000000   1.0000000   6.0000000   1.0000000   6.0000000   1.0000000   1.0000000

  Atom        11          12          13          14
 IAtWgt=           1          16          16           1
 AtmWgt=   1.0078250  15.9949146  15.9949146   1.0078250
 NucSpn=           1           0           0           1
 AtZEff=  -0.0000000  -0.0000000  -0.0000000  -0.0000000
 NQMom=    0.0000000   0.0000000   0.0000000   0.0000000
 NMagM=    2.7928460   0.0000000   0.0000000   2.7928460
 AtZNuc=   1.0000000   8.0000000   8.0000000   1.0000000
 Leave Link  101 at Tue May 20 10:46:33 2025, MaxMem=  3758096384 cpu:               0.6 elap:               0.1
 (Enter /gpfs/fs1/soft/bebop/software/custom-built/gaussian/16-c.02/g16/l103.exe)

 GradGradGradGradGradGradGradGradGradGradGradGradGradGradGradGradGradGrad
 Berny optimization.
 Initialization pass.
                       ----------------------------
                       !    Initial Parameters    !
                       ! (Angstroms and Degrees)  !
 ----------------------                            ----------------------
 !      Name          Value   Derivative information (Atomic Units)     !
 ------------------------------------------------------------------------
 !       R1          1.4987   estimate D2E/DX2                          !
 !       R2          1.0837   estimate D2E/DX2                          !
 !       R3          1.5612   estimate D2E/DX2                          !
 !       R4          1.0902   estimate D2E/DX2                          !
 !       R5          1.5107   estimate D2E/DX2                          !
 !       R6          1.0928   estimate D2E/DX2                          !
 !       R8          1.0826   estimate D2E/DX2                          !
 !       R9          1.0834   estimate D2E/DX2                          !
 !       R10         1.0853   estimate D2E/DX2                          !
 !       R11         1.3869   estimate D2E/DX2                          !
 !       R12         1.4572   estimate D2E/DX2                          !
 !       R13         0.9671   estimate D2E/DX2                          !
 !       A2        119.0787   estimate D2E/DX2                          !
 !       A3        101.9314   estimate D2E/DX2                          !
 !       A4        113.2489   estimate D2E/DX2                          !
 !       A5        109.1427   estimate D2E/DX2                          !
 !       A6        108.381    estimate D2E/DX2                          !
 !       A7         96.761    estimate D2E/DX2                          !
 !       A8        118.5791   estimate D2E/DX2                          !
 !       A9        118.6076   estimate D2E/DX2                          !
 !       A10       110.8642   estimate D2E/DX2                          !
 !       A11        95.2673   estimate D2E/DX2                          !
 !       A12       107.1376   estimate D2E/DX2                          !
 !       A13        98.9831   estimate D2E/DX2                          !
 !       D3        275.282    estimate D2E/DX2                          !
 !       D4        120.0459   estimate D2E/DX2                          !
 !       D5        322.1707   estimate D2E/DX2                          !
 !       D6        119.4957   estimate D2E/DX2                          !
 !       D7         12.3269   estimate D2E/DX2                          !
 !       D8        260.5898   estimate D2E/DX2                          !
 !       D9        112.7497   estimate D2E/DX2                          !
 !       D10       143.0013   estimate D2E/DX2                          !
 !       D11       117.5674   estimate D2E/DX2                          !
 !       D12       199.8618   estimate D2E/DX2                          !
 !       D13       232.0937   estimate D2E/DX2                          !
 !       R7          2.2255   Frozen                                    !
 ------------------------------------------------------------------------
 Trust Radius=3.00D-01 FncErr=1.00D-07 GrdErr=1.00D-06 EigMax=2.50D+02 EigMin=1.00D-04
 Number of steps in this run=     46 maximum allowed number of steps=    100.
 GradGradGradGradGradGradGradGradGradGradGradGradGradGradGradGradGradGrad

 Leave Link  103 at Tue May 20 10:46:34 2025, MaxMem=  3758096384 cpu:               0.3 elap:               0.1
 (Enter /gpfs/fs1/soft/bebop/software/custom-built/gaussian/16-c.02/g16/l202.exe)
 ---------------------------------------------------------------------------------------------------
                            Z-MATRIX (ANGSTROMS AND DEGREES)
   CD    Cent   Atom    N1       Length/X        N2       Alpha/Y        N3        Beta/Z          J
 ---------------------------------------------------------------------------------------------------
      1      1  C 
      2      2  C        1   1.498667(     1)
      3      3  H        1   1.083671(     2)      2  119.079(    14)
      4      4  C        2   1.561222(     3)      1  101.931(    15)      3  275.282(    26)      0
      5      5  H        2   1.090213(     4)      1  113.249(    16)      4  120.046(    27)      0
      6      6  C        4   1.510697(     5)      2  109.143(    17)      1  322.171(    28)      0
      7      7  H        4   1.092783(     6)      2  108.381(    18)      6  119.496(    29)      0
      8      8  C        6   2.225485(     7)      4   96.761(    19)      2   12.327(    30)      0
      9      9  H        6   1.082620(     8)      4  118.579(    20)      8  260.590(    31)      0
     10     10  H        6   1.083441(     9)      4  118.608(    21)      8  112.750(    32)      0
     11     11  H        8   1.085260(    10)      6  110.864(    22)      4  143.001(    33)      0
     12     12  O        8   1.386921(    11)      6   95.267(    23)     11  117.567(    34)      0
     13     13  O       12   1.457216(    12)      8  107.138(    24)      1  199.862(    35)      0
     14     14  H       13   0.967101(    13)     12   98.983(    25)      8  232.094(    36)      0
 ---------------------------------------------------------------------------------------------------
                         Z-Matrix orientation:                         
 ---------------------------------------------------------------------
 Center     Atomic      Atomic             Coordinates (Angstroms)
 Number     Number       Type             X           Y           Z
 ---------------------------------------------------------------------
      1          6           0        0.000000    0.000000    0.000000
      2          6           0        0.000000    0.000000    1.498667
      3          1           0        0.947077    0.000000   -0.526676
      4          6           0        0.140617   -1.521007    1.821434
      5          1           0        0.817232    0.579229    1.929003
      6          6           0       -0.664887   -2.316270    0.820972
      7          1           0        1.196238   -1.793205    1.745620
      8          6           0       -1.033454   -0.647418   -0.604467
      9          1           0       -1.712431   -2.497011    1.026032
     10          1           0       -0.166898   -3.094859    0.255595
     11          1           0       -1.004024   -1.001391   -1.629955
     12          8           0       -2.315514   -0.373958   -0.151597
     13          8           0       -3.165709   -1.478564   -0.576441
     14          1           0       -3.865818   -0.971943   -1.010568
 ---------------------------------------------------------------------
                    Distance matrix (angstroms):
                    1          2          3          4          5
     1  C    0.000000
     2  C    1.498667   0.000000
     3  H    1.083671   2.235837   0.000000
     4  C    2.377153   1.561222   2.911608   0.000000
     5  H    2.173575   1.090213   2.526405   2.209156   0.000000
     6  C    2.545816   2.503288   3.127250   1.510697   3.436325
     7  H    2.773763   2.169690   2.905339   1.092783   2.409506
     8  C    1.361087   2.431121   2.085116   2.833125   3.368705
     9  H    3.196909   3.064452   3.964713   2.240321   4.083847
    10  H    3.109877   3.339347   3.380982   2.241301   4.155446
    11  H    2.160464   3.434986   2.454956   3.673186   4.299014
    12  O    2.350411   2.867895   3.305304   3.352783   3.879634
    13  O    3.541207   4.063734   4.370771   4.084532   5.135716
    14  H    4.112234   4.710147   4.933841   4.936925   5.742663
                    6          7          8          9         10
     6  C    0.000000
     7  H    2.142979   0.000000
     8  C    2.225485   3.436170   0.000000
     9  H    1.082620   3.077906   2.557446   0.000000
    10  H    1.083441   2.402628   2.735067   1.827476   0.000000
    11  H    2.801957   4.106414   1.085260   3.129375   2.939164
    12  O    2.728193   4.236283   1.386921   2.501574   3.490796
    13  O    2.984732   4.951520   2.288689   2.391060   3.506787
    14  H    3.925266   5.821980   2.879673   3.333264   4.448814
                   11         12         13         14
    11  H    0.000000
    12  O    2.073457   0.000000
    13  O    2.451625   1.457216   0.000000
    14  H    2.928203   1.870524   0.967101   0.000000
 Stoichiometry    C5H7O2(2)
 Framework group  C1[X(C5H7O2)]
 Deg. of freedom    36
 Full point group                 C1      NOp   1
 Largest Abelian subgroup         C1      NOp   1
 Largest concise Abelian subgroup C1      NOp   1
                         Standard orientation:                         
 ---------------------------------------------------------------------
 Center     Atomic      Atomic             Coordinates (Angstroms)
 Number     Number       Type             X           Y           Z
 ---------------------------------------------------------------------
      1          6           0        0.815532   -1.145173    0.439079
      2          6           0        1.596272   -0.610423   -0.723027
      3          1           0        1.346559   -1.464436    1.328137
      4          6           0        1.772119    0.890388   -0.330526
      5          1           0        2.558047   -1.105309   -0.859567
      6          6           0        0.507417    1.379793    0.335219
      7          1           0        2.610310    0.968410    0.366270
      8          6           0       -0.425849   -0.619441    0.626526
      9          1           0       -0.289890    1.765204   -0.287537
     10          1           0        0.579102    1.828278    1.318869
     11          1           0       -0.961094   -0.662425    1.569635
     12          8           0       -1.260082   -0.532688   -0.478046
     13          8           0       -2.285673    0.454084   -0.165117
     14          1           0       -3.069946   -0.071760   -0.374131
 ---------------------------------------------------------------------
 Rotational constants (GHZ):           4.8900150           2.0745418           1.7258474
 Leave Link  202 at Tue May 20 10:46:34 2025, MaxMem=  3758096384 cpu:               0.1 elap:               0.0
 (Enter /gpfs/fs1/soft/bebop/software/custom-built/gaussian/16-c.02/g16/l301.exe)
 Standard basis: def2SVP (5D, 7F)
 Ernie: Thresh=  0.10000D-02 Tol=  0.10000D-05 Strict=F.
 There are   140 symmetry adapted cartesian basis functions of A   symmetry.
 There are   133 symmetry adapted basis functions of A   symmetry.
   133 basis functions,   224 primitive gaussians,   140 cartesian basis functions
    27 alpha electrons       26 beta electrons
       nuclear repulsion energy       290.8131392574 Hartrees.
 IExCor= 4639 DFT=T Ex+Corr=wB97XD ExCW=0 ScaHFX=  1.000000
 ScaDFX=  1.000000  1.000000  1.000000  1.000000 ScalE2=  1.000000  1.000000
 IRadAn=      5 IRanWt=     -1 IRanGd=            0 ICorTp=0 IEmpDi=121
 HFx  wShort=  0.000000 wLong=  0.200000 cFull=  0.222036 cShort=  0.000000 cLong=  0.777964
 DFx  wShort=  0.000000 wLong=  0.200000 cFull=  0.000000 cShort=  0.000000 cLong=  1.000000
 NAtoms=   14 NActive=   14 NUniq=   14 SFac= 1.00D+00 NAtFMM=   60 NAOKFM=F Big=F
 Integral buffers will be    131072 words long.
 Raffenetti 2 integral format.
 Two-electron integral symmetry is turned on.
 R6Disp:  Grimme-D2 Dispersion energy=       -0.0064449614 Hartrees.
 Nuclear repulsion after empirical dispersion term =      290.8066942960 Hartrees.
 Leave Link  301 at Tue May 20 10:46:34 2025, MaxMem=  3758096384 cpu:               0.4 elap:               0.1
 (Enter /gpfs/fs1/soft/bebop/software/custom-built/gaussian/16-c.02/g16/l302.exe)
 NPDir=0 NMtPBC=     1 NCelOv=     1 NCel=       1 NClECP=     1 NCelD=      1
         NCelK=      1 NCelE2=     1 NClLst=     1 CellRange=     0.0.
 One-electron integrals computed using PRISM.
 One-electron integral symmetry used in STVInt
   1 Symmetry operations used in ECPInt.
 ECPInt:  NShTT=    2016 NPrTT=    7252 LenC2=    2007 LenP2D=    5970.
 LDataN:  DoStor=T MaxTD1= 4 Len=   56
 NBasis=   133 RedAO= T EigKep=  1.15D-03  NBF=   133
 NBsUse=   133 1.00D-06 EigRej= -1.00D+00 NBFU=   133
 Precomputing XC quadrature grid using
 IXCGrd= 4 IRadAn=           5 IRanWt=          -1 IRanGd=           0 AccXCQ= 0.00D+00.
 Generated NRdTot=       0 NPtTot=           0 NUsed=           0 NTot=          32
 NSgBfM=   140   140   140   140   140 MxSgAt=    14 MxSgA2=    14.
 Leave Link  302 at Tue May 20 10:46:34 2025, MaxMem=  3758096384 cpu:               0.8 elap:               0.2
 (Enter /gpfs/fs1/soft/bebop/software/custom-built/gaussian/16-c.02/g16/l303.exe)
 DipDrv:  MaxL=1.
 Leave Link  303 at Tue May 20 10:46:34 2025, MaxMem=  3758096384 cpu:               0.1 elap:               0.0
 (Enter /gpfs/fs1/soft/bebop/software/custom-built/gaussian/16-c.02/g16/l401.exe)
 ExpMin= 1.22D-01 ExpMax= 2.27D+03 ExpMxC= 3.41D+02 IAcc=3 IRadAn=         5 AccDes= 0.00D+00
 Harris functional with IExCor= 4639 and IRadAn=       5 diagonalized for initial guess.
 HarFok:  IExCor= 4639 AccDes= 0.00D+00 IRadAn=         5 IDoV= 1 UseB2=F ITyADJ=14
 ICtDFT=  3500011 ScaDFX=  1.000000  1.000000  1.000000  1.000000
 FoFCou: FMM=F IPFlag=           0 FMFlag=      100000 FMFlg1=           0
         NFxFlg=           0 DoJE=T BraDBF=F KetDBF=T FulRan=T
         wScrn=  0.000000 ICntrl=       500 IOpCl=  0 I1Cent=   200000004 NGrid=           0
         NMat0=    1 NMatS0=      1 NMatT0=    0 NMatD0=    1 NMtDS0=    0 NMtDT0=    0
 Petite list used in FoFCou.
 Harris En= -330.255754448254    
 JPrj=0 DoOrth=F DoCkMO=F.
 Initial guess <Sx>= 0.0000 <Sy>= 0.0000 <Sz>= 0.5000 <S**2>= 0.7500 S= 0.5000
 Leave Link  401 at Tue May 20 10:46:35 2025, MaxMem=  3758096384 cpu:               2.4 elap:               0.4
 (Enter /gpfs/fs1/soft/bebop/software/custom-built/gaussian/16-c.02/g16/l502.exe)
 Keep R1 and R2 ints in memory in canonical form, NReq=165843629.
 FoFCou: FMM=F IPFlag=           0 FMFlag=           0 FMFlg1=           0
         NFxFlg=           0 DoJE=F BraDBF=F KetDBF=F FulRan=T
         wScrn=  0.000000 ICntrl=       600 IOpCl=  0 I1Cent=           0 NGrid=           0
         NMat0=    1 NMatS0=   8911 NMatT0=    0 NMatD0=    1 NMtDS0=    0 NMtDT0=    0
 Symmetry not used in FoFCou.
 Two-electron integral symmetry not used.
 UHF open shell SCF:
 Using DIIS extrapolation, IDIIS=  1040.
 NGot=  3758096384 LenX=  3599224750 LenY=  3599204709
 Requested convergence on RMS density matrix=1.00D-08 within  32 cycles.
 Requested convergence on MAX density matrix=1.00D-06.
 Requested convergence on             energy=1.00D-06.
 No special actions if energy rises.
 Integral accuracy reduced to 1.0D-05 until final iterations.

 Cycle   1  Pass 0  IDiag  1:
 E= -344.118115554972    
 DIIS: error= 3.34D-02 at cycle   1 NSaved=   1.
 NSaved= 1 IEnMin= 1 EnMin= -344.118115554972     IErMin= 1 ErrMin= 3.34D-02
 ErrMax= 3.34D-02  0.00D+00 EMaxC= 1.00D-01 BMatC= 1.64D+00 BMatP= 1.64D+00
 IDIUse=3 WtCom= 6.66D-01 WtEn= 3.34D-01
 Coeff-Com:  0.100D+01
 Coeff-En:   0.100D+01
 Coeff:      0.100D+01
 Gap=     0.529 Goal=   None    Shift=    0.000
 Gap=    -0.091 Goal=   None    Shift=    0.000
 GapD=   -0.091 DampG=0.250 DampE=0.500 DampFc=0.2500 IDamp=-1.
 Damping current iteration by 2.50D-01
 RMSDP=1.40D-02 MaxDP=3.69D-01              OVMax= 9.21D-01

 Cycle   2  Pass 0  IDiag  1:
 E= -344.147996384872     Delta-E=       -0.029880829900 Rises=F Damp=T
 DIIS: error= 2.10D-02 at cycle   2 NSaved=   2.
 NSaved= 2 IEnMin= 2 EnMin= -344.147996384872     IErMin= 2 ErrMin= 2.10D-02
 ErrMax= 2.10D-02  0.00D+00 EMaxC= 1.00D-01 BMatC= 2.89D-01 BMatP= 1.64D+00
 IDIUse=3 WtCom= 7.90D-01 WtEn= 2.10D-01
 Coeff-Com: -0.184D+00 0.118D+01
 Coeff-En:   0.420D+00 0.580D+00
 Coeff:     -0.568D-01 0.106D+01
 Gap=     0.075 Goal=   None    Shift=    0.000
 Gap=    -0.201 Goal=   None    Shift=    0.000
 RMSDP=3.83D-03 MaxDP=6.17D-02 DE=-2.99D-02 OVMax= 9.84D-01

 Cycle   3  Pass 0  IDiag  1:
 E= -344.366858692703     Delta-E=       -0.218862307832 Rises=F Damp=F
 DIIS: error= 2.20D-02 at cycle   3 NSaved=   3.
 NSaved= 3 IEnMin= 3 EnMin= -344.366858692703     IErMin= 2 ErrMin= 2.10D-02
 ErrMax= 2.20D-02  0.00D+00 EMaxC= 1.00D-01 BMatC= 2.09D-01 BMatP= 2.89D-01
 IDIUse=3 WtCom= 7.80D-01 WtEn= 2.20D-01
 Coeff-Com: -0.284D+00 0.619D+00 0.665D+00
 Coeff-En:   0.000D+00 0.000D+00 0.100D+01
 Coeff:     -0.222D+00 0.483D+00 0.738D+00
 Gap=     0.220 Goal=   None    Shift=    0.000
 Gap=     0.121 Goal=   None    Shift=    0.000
 RMSDP=2.30D-03 MaxDP=6.04D-02 DE=-2.19D-01 OVMax= 1.74D-01

 Cycle   4  Pass 0  IDiag  1:
 E= -344.419846508899     Delta-E=       -0.052987816196 Rises=F Damp=F
 DIIS: error= 7.20D-03 at cycle   4 NSaved=   4.
 NSaved= 4 IEnMin= 4 EnMin= -344.419846508899     IErMin= 4 ErrMin= 7.20D-03
 ErrMax= 7.20D-03  0.00D+00 EMaxC= 1.00D-01 BMatC= 7.22D-02 BMatP= 2.09D-01
 IDIUse=3 WtCom= 9.28D-01 WtEn= 7.20D-02
 Coeff-Com: -0.199D+00 0.283D+00 0.433D+00 0.483D+00
 Coeff-En:   0.000D+00 0.000D+00 0.000D+00 0.100D+01
 Coeff:     -0.185D+00 0.262D+00 0.402D+00 0.520D+00
 Gap=     0.222 Goal=   None    Shift=    0.000
 Gap=     0.146 Goal=   None    Shift=    0.000
 RMSDP=9.40D-04 MaxDP=2.25D-02 DE=-5.30D-02 OVMax= 6.17D-02

 Cycle   5  Pass 0  IDiag  1:
 E= -344.436760628545     Delta-E=       -0.016914119645 Rises=F Damp=F
 DIIS: error= 5.84D-03 at cycle   5 NSaved=   5.
 NSaved= 5 IEnMin= 5 EnMin= -344.436760628545     IErMin= 5 ErrMin= 5.84D-03
 ErrMax= 5.84D-03  0.00D+00 EMaxC= 1.00D-01 BMatC= 7.97D-03 BMatP= 7.22D-02
 IDIUse=3 WtCom= 9.42D-01 WtEn= 5.84D-02
 Coeff-Com: -0.556D-01 0.707D-01-0.342D-02 0.167D+00 0.821D+00
 Coeff-En:   0.000D+00 0.000D+00 0.000D+00 0.000D+00 0.100D+01
 Coeff:     -0.524D-01 0.666D-01-0.322D-02 0.157D+00 0.832D+00
 Gap=     0.234 Goal=   None    Shift=    0.000
 Gap=     0.168 Goal=   None    Shift=    0.000
 RMSDP=5.92D-04 MaxDP=1.05D-02 DE=-1.69D-02 OVMax= 6.99D-02

 Cycle   6  Pass 0  IDiag  1:
 E= -344.442885563773     Delta-E=       -0.006124935228 Rises=F Damp=F
 DIIS: error= 2.67D-03 at cycle   6 NSaved=   6.
 NSaved= 6 IEnMin= 6 EnMin= -344.442885563773     IErMin= 6 ErrMin= 2.67D-03
 ErrMax= 2.67D-03  0.00D+00 EMaxC= 1.00D-01 BMatC= 1.62D-03 BMatP= 7.97D-03
 IDIUse=3 WtCom= 9.73D-01 WtEn= 2.67D-02
 Coeff-Com:  0.399D-01-0.485D-01-0.126D+00-0.879D-01 0.218D+00 0.100D+01
 Coeff-En:   0.000D+00 0.000D+00 0.000D+00 0.000D+00 0.000D+00 0.100D+01
 Coeff:      0.389D-01-0.472D-01-0.123D+00-0.856D-01 0.212D+00 0.100D+01
 Gap=     0.238 Goal=   None    Shift=    0.000
 Gap=     0.184 Goal=   None    Shift=    0.000
 RMSDP=6.18D-04 MaxDP=1.31D-02 DE=-6.12D-03 OVMax= 5.77D-02

 Cycle   7  Pass 0  IDiag  1:
 E= -344.446802353535     Delta-E=       -0.003916789762 Rises=F Damp=F
 DIIS: error= 1.50D-03 at cycle   7 NSaved=   7.
 NSaved= 7 IEnMin= 7 EnMin= -344.446802353535     IErMin= 7 ErrMin= 1.50D-03
 ErrMax= 1.50D-03  0.00D+00 EMaxC= 1.00D-01 BMatC= 1.51D-03 BMatP= 1.62D-03
 IDIUse=3 WtCom= 9.85D-01 WtEn= 1.50D-02
 Coeff-Com:  0.312D-01-0.349D-01-0.123D-01-0.349D-01-0.163D+00 0.404D+00
 Coeff-Com:  0.810D+00
 Coeff-En:   0.000D+00 0.000D+00 0.000D+00 0.000D+00 0.000D+00 0.000D+00
 Coeff-En:   0.100D+01
 Coeff:      0.307D-01-0.343D-01-0.121D-01-0.343D-01-0.161D+00 0.398D+00
 Coeff:      0.813D+00
 Gap=     0.240 Goal=   None    Shift=    0.000
 Gap=     0.189 Goal=   None    Shift=    0.000
 RMSDP=4.30D-04 MaxDP=8.84D-03 DE=-3.92D-03 OVMax= 3.98D-02

 Cycle   8  Pass 0  IDiag  1:
 E= -344.449254725118     Delta-E=       -0.002452371583 Rises=F Damp=F
 DIIS: error= 1.90D-03 at cycle   8 NSaved=   8.
 NSaved= 8 IEnMin= 8 EnMin= -344.449254725118     IErMin= 7 ErrMin= 1.50D-03
 ErrMax= 1.90D-03  0.00D+00 EMaxC= 1.00D-01 BMatC= 1.10D-03 BMatP= 1.51D-03
 IDIUse=3 WtCom= 9.85D-01 WtEn= 1.50D-02
 Coeff-Com:  0.265D-02-0.123D-02 0.752D-01 0.510D-01-0.200D+00-0.288D+00
 Coeff-Com:  0.357D+00 0.100D+01
 Coeff-En:   0.000D+00 0.000D+00 0.000D+00 0.000D+00 0.000D+00 0.000D+00
 Coeff-En:   0.000D+00 0.100D+01
 Coeff:      0.261D-02-0.121D-02 0.741D-01 0.503D-01-0.197D+00-0.284D+00
 Coeff:      0.352D+00 0.100D+01
 Gap=     0.242 Goal=   None    Shift=    0.000
 Gap=     0.192 Goal=   None    Shift=    0.000
 RMSDP=5.86D-04 MaxDP=1.21D-02 DE=-2.45D-03 OVMax= 6.47D-02

 Cycle   9  Pass 0  IDiag  1:
 E= -344.452389009013     Delta-E=       -0.003134283895 Rises=F Damp=F
 DIIS: error= 1.79D-03 at cycle   9 NSaved=   9.
 NSaved= 9 IEnMin= 9 EnMin= -344.452389009013     IErMin= 7 ErrMin= 1.50D-03
 ErrMax= 1.79D-03  0.00D+00 EMaxC= 1.00D-01 BMatC= 7.75D-04 BMatP= 1.10D-03
 IDIUse=3 WtCom= 9.85D-01 WtEn= 1.50D-02
 Coeff-Com: -0.926D-02 0.134D-01 0.297D-01 0.364D-01 0.783D-02-0.104D+00
 Coeff-Com: -0.240D+00 0.269D+00 0.997D+00
 Coeff-En:   0.000D+00 0.000D+00 0.000D+00 0.000D+00 0.000D+00 0.000D+00
 Coeff-En:   0.000D+00 0.000D+00 0.100D+01
 Coeff:     -0.912D-02 0.132D-01 0.292D-01 0.359D-01 0.772D-02-0.103D+00
 Coeff:     -0.236D+00 0.265D+00 0.997D+00
 Gap=     0.245 Goal=   None    Shift=    0.000
 Gap=     0.197 Goal=   None    Shift=    0.000
 RMSDP=4.89D-04 MaxDP=9.80D-03 DE=-3.13D-03 OVMax= 5.42D-02

 Failed to achieve initial convergence to 1.0D-08 in 10 cycles.
 Switch to full accuracy anyway.
 Cycle  10  Pass 1  IDiag  1:
 E= -344.454874455785     Delta-E=       -0.002485446773 Rises=F Damp=F
 DIIS: error= 1.82D-03 at cycle   1 NSaved=   1.
 NSaved= 1 IEnMin= 1 EnMin= -344.454874455785     IErMin= 1 ErrMin= 1.82D-03
 ErrMax= 1.82D-03  0.00D+00 EMaxC= 1.00D-01 BMatC= 6.98D-04 BMatP= 6.98D-04
 IDIUse=3 WtCom= 9.82D-01 WtEn= 1.82D-02
 Coeff-Com:  0.100D+01
 Coeff-En:   0.100D+01
 Coeff:      0.100D+01
 Gap=     0.249 Goal=   None    Shift=    0.000
 Gap=     0.203 Goal=   None    Shift=    0.000
 RMSDP=4.89D-04 MaxDP=9.80D-03 DE=-2.49D-03 OVMax= 4.49D-02

 Cycle  11  Pass 1  IDiag  1:
 E= -344.456890033814     Delta-E=       -0.002015578028 Rises=F Damp=F
 DIIS: error= 1.87D-03 at cycle   2 NSaved=   2.
 NSaved= 2 IEnMin= 2 EnMin= -344.456890033814     IErMin= 1 ErrMin= 1.82D-03
 ErrMax= 1.87D-03  0.00D+00 EMaxC= 1.00D-01 BMatC= 6.65D-04 BMatP= 6.98D-04
 IDIUse=3 WtCom= 9.81D-01 WtEn= 1.87D-02
 Coeff-Com:  0.270D+00 0.730D+00
 Coeff-En:   0.000D+00 0.100D+01
 Coeff:      0.265D+00 0.735D+00
 Gap=     0.253 Goal=   None    Shift=    0.000
 Gap=     0.206 Goal=   None    Shift=    0.000
 RMSDP=2.87D-04 MaxDP=6.60D-03 DE=-2.02D-03 OVMax= 3.31D-02

 Cycle  12  Pass 1  IDiag  1:
 E= -344.458284820239     Delta-E=       -0.001394786425 Rises=F Damp=F
 DIIS: error= 1.74D-03 at cycle   3 NSaved=   3.
 NSaved= 3 IEnMin= 3 EnMin= -344.458284820239     IErMin= 3 ErrMin= 1.74D-03
 ErrMax= 1.74D-03  0.00D+00 EMaxC= 1.00D-01 BMatC= 6.25D-04 BMatP= 6.65D-04
 IDIUse=3 WtCom= 9.83D-01 WtEn= 1.74D-02
 Coeff-Com: -0.105D+01 0.244D+00 0.181D+01
 Coeff-En:   0.000D+00 0.000D+00 0.100D+01
 Coeff:     -0.103D+01 0.240D+00 0.179D+01
 Gap=     0.263 Goal=   None    Shift=    0.000
 Gap=     0.218 Goal=   None    Shift=    0.000
 RMSDP=9.44D-04 MaxDP=2.01D-02 DE=-1.39D-03 OVMax= 1.05D-01

 Cycle  13  Pass 1  IDiag  1:
 E= -344.462436929775     Delta-E=       -0.004152109536 Rises=F Damp=F
 DIIS: error= 1.43D-03 at cycle   4 NSaved=   4.
 NSaved= 4 IEnMin= 4 EnMin= -344.462436929775     IErMin= 4 ErrMin= 1.43D-03
 ErrMax= 1.43D-03  0.00D+00 EMaxC= 1.00D-01 BMatC= 4.20D-04 BMatP= 6.25D-04
 IDIUse=3 WtCom= 9.86D-01 WtEn= 1.43D-02
 Coeff-Com:  0.211D+01-0.973D+00-0.239D+01 0.225D+01
 Coeff-En:   0.000D+00 0.000D+00 0.000D+00 0.100D+01
 Coeff:      0.208D+01-0.959D+00-0.235D+01 0.223D+01
 Gap=     0.261 Goal=   None    Shift=    0.000
 Gap=     0.217 Goal=   None    Shift=    0.000
 RMSDP=3.96D-04 MaxDP=8.93D-03 DE=-4.15D-03 OVMax= 4.28D-02

 Cycle  14  Pass 1  IDiag  1:
 E= -344.463769916670     Delta-E=       -0.001332986895 Rises=F Damp=F
 DIIS: error= 1.06D-03 at cycle   5 NSaved=   5.
 NSaved= 5 IEnMin= 5 EnMin= -344.463769916670     IErMin= 5 ErrMin= 1.06D-03
 ErrMax= 1.06D-03  0.00D+00 EMaxC= 1.00D-01 BMatC= 5.18D-04 BMatP= 4.20D-04
 IDIUse=3 WtCom= 2.35D-01 WtEn= 7.65D-01
 Coeff-Com:  0.490D+01-0.144D+01-0.676D+01 0.301D+01 0.128D+01
 Coeff-En:   0.000D+00 0.000D+00 0.000D+00 0.000D+00 0.100D+01
 Coeff:      0.115D+01-0.338D+00-0.159D+01 0.707D+00 0.107D+01
 Gap=     0.267 Goal=   None    Shift=    0.000
 Gap=     0.226 Goal=   None    Shift=    0.000
 RMSDP=3.64D-04 MaxDP=8.74D-03 DE=-1.33D-03 OVMax= 4.16D-02

 Cycle  15  Pass 1  IDiag  1:
 E= -344.464913232821     Delta-E=       -0.001143316151 Rises=F Damp=F
 DIIS: error= 9.79D-04 at cycle   6 NSaved=   6.
 NSaved= 6 IEnMin= 6 EnMin= -344.464913232821     IErMin= 6 ErrMin= 9.79D-04
 ErrMax= 9.79D-04  0.00D+00 EMaxC= 1.00D-01 BMatC= 3.13D-04 BMatP= 4.20D-04
 IDIUse=3 WtCom= 9.90D-01 WtEn= 9.79D-03
 Coeff-Com:  0.340D+01-0.105D+01-0.478D+01 0.142D+01 0.126D+01 0.751D+00
 Coeff-En:   0.000D+00 0.000D+00 0.000D+00 0.000D+00 0.000D+00 0.100D+01
 Coeff:      0.337D+01-0.104D+01-0.473D+01 0.141D+01 0.125D+01 0.753D+00
 Gap=     0.270 Goal=   None    Shift=    0.000
 Gap=     0.233 Goal=   None    Shift=    0.000
 RMSDP=8.06D-04 MaxDP=1.61D-02 DE=-1.14D-03 OVMax= 8.91D-02

 Cycle  16  Pass 1  IDiag  1:
 E= -344.466335685498     Delta-E=       -0.001422452677 Rises=F Damp=F
 DIIS: error= 3.85D-04 at cycle   7 NSaved=   7.
 NSaved= 7 IEnMin= 7 EnMin= -344.466335685498     IErMin= 7 ErrMin= 3.85D-04
 ErrMax= 3.85D-04  0.00D+00 EMaxC= 1.00D-01 BMatC= 1.05D-04 BMatP= 3.13D-04
 IDIUse=3 WtCom= 9.96D-01 WtEn= 3.85D-03
 Coeff-Com:  0.235D+00 0.581D-02-0.786D+00 0.122D+01-0.542D+00-0.351D+00
 Coeff-Com:  0.122D+01
 Coeff-En:   0.000D+00 0.000D+00 0.000D+00 0.000D+00 0.000D+00 0.000D+00
 Coeff-En:   0.100D+01
 Coeff:      0.234D+00 0.579D-02-0.783D+00 0.121D+01-0.540D+00-0.350D+00
 Coeff:      0.122D+01
 Gap=     0.288 Goal=   None    Shift=    0.000
 Gap=     0.240 Goal=   None    Shift=    0.000
 RMSDP=2.44D-04 MaxDP=4.54D-03 DE=-1.42D-03 OVMax= 2.32D-02

 Cycle  17  Pass 1  IDiag  1:
 E= -344.466456619617     Delta-E=       -0.000120934119 Rises=F Damp=F
 DIIS: error= 2.58D-04 at cycle   8 NSaved=   8.
 NSaved= 8 IEnMin= 8 EnMin= -344.466456619617     IErMin= 8 ErrMin= 2.58D-04
 ErrMax= 2.58D-04  0.00D+00 EMaxC= 1.00D-01 BMatC= 1.76D-05 BMatP= 1.05D-04
 IDIUse=3 WtCom= 9.97D-01 WtEn= 2.58D-03
 Coeff-Com:  0.850D-01 0.130D-01-0.196D+00 0.440D+00-0.188D+00-0.241D+00
 Coeff-Com:  0.393D+00 0.695D+00
 Coeff-En:   0.000D+00 0.000D+00 0.000D+00 0.000D+00 0.000D+00 0.000D+00
 Coeff-En:   0.000D+00 0.100D+01
 Coeff:      0.848D-01 0.130D-01-0.195D+00 0.439D+00-0.188D+00-0.241D+00
 Coeff:      0.392D+00 0.695D+00
 Gap=     0.283 Goal=   None    Shift=    0.000
 Gap=     0.236 Goal=   None    Shift=    0.000
 RMSDP=1.17D-04 MaxDP=2.49D-03 DE=-1.21D-04 OVMax= 1.25D-02

 Cycle  18  Pass 1  IDiag  1:
 E= -344.466451552440     Delta-E=        0.000005067177 Rises=F Damp=F
 DIIS: error= 2.56D-04 at cycle   9 NSaved=   9.
 NSaved= 9 IEnMin= 8 EnMin= -344.466456619617     IErMin= 9 ErrMin= 2.56D-04
 ErrMax= 2.56D-04  0.00D+00 EMaxC= 1.00D-01 BMatC= 9.50D-06 BMatP= 1.76D-05
 IDIUse=3 WtCom= 9.97D-01 WtEn= 2.56D-03
 Rare condition: small coef for last iteration:  0.000D+00
 Coeff-Com: -0.234D+00 0.112D+00 0.436D+00-0.141D+00-0.131D+00-0.247D+00
 Coeff-Com: -0.938D-01 0.299D+00 0.100D+01
 Coeff-En:   0.000D+00 0.000D+00 0.000D+00 0.000D+00 0.000D+00 0.000D+00
 Coeff-En:   0.000D+00 0.000D+00 0.100D+01
 Coeff:     -0.234D+00 0.112D+00 0.436D+00-0.141D+00-0.131D+00-0.247D+00
 Coeff:     -0.938D-01 0.299D+00 0.100D+01
 Gap=     0.282 Goal=   None    Shift=    0.000
 Gap=     0.235 Goal=   None    Shift=    0.000
 RMSDP=6.00D-05 MaxDP=1.04D-03 DE= 5.07D-06 OVMax= 8.02D-03

 Cycle  19  Pass 1  IDiag  1:
 E= -344.466469376533     Delta-E=       -0.000017824093 Rises=F Damp=F
 DIIS: error= 1.81D-04 at cycle  10 NSaved=  10.
 NSaved=10 IEnMin=10 EnMin= -344.466469376533     IErMin=10 ErrMin= 1.81D-04
 ErrMax= 1.81D-04  0.00D+00 EMaxC= 1.00D-01 BMatC= 5.82D-06 BMatP= 9.50D-06
 IDIUse=3 WtCom= 9.98D-01 WtEn= 1.81D-03
 Coeff-Com:  0.169D-01 0.755D-01-0.500D-01 0.674D-01-0.121D+00-0.172D+00
 Coeff-Com:  0.547D-01 0.733D-01-0.152D+00 0.121D+01
 Coeff-En:   0.000D+00 0.000D+00 0.000D+00 0.000D+00 0.000D+00 0.000D+00
 Coeff-En:   0.000D+00 0.000D+00 0.000D+00 0.100D+01
 Coeff:      0.168D-01 0.753D-01-0.499D-01 0.673D-01-0.121D+00-0.172D+00
 Coeff:      0.546D-01 0.732D-01-0.152D+00 0.121D+01
 Gap=     0.284 Goal=   None    Shift=    0.000
 Gap=     0.237 Goal=   None    Shift=    0.000
 RMSDP=9.57D-05 MaxDP=1.79D-03 DE=-1.78D-05 OVMax= 1.37D-02

 Cycle  20  Pass 1  IDiag  1:
 E= -344.466495779982     Delta-E=       -0.000026403449 Rises=F Damp=F
 DIIS: error= 6.35D-05 at cycle  11 NSaved=  11.
 NSaved=11 IEnMin=11 EnMin= -344.466495779982     IErMin=11 ErrMin= 6.35D-05
 ErrMax= 6.35D-05  0.00D+00 EMaxC= 1.00D-01 BMatC= 1.86D-06 BMatP= 5.82D-06
 IDIUse=1 WtCom= 1.00D+00 WtEn= 0.00D+00
 Coeff-Com:  0.614D-01 0.269D-01-0.134D+00 0.186D+00-0.105D+00-0.138D+00
 Coeff-Com:  0.800D-01 0.723D-01-0.337D+00 0.490D+00 0.797D+00
 Coeff:      0.614D-01 0.269D-01-0.134D+00 0.186D+00-0.105D+00-0.138D+00
 Coeff:      0.800D-01 0.723D-01-0.337D+00 0.490D+00 0.797D+00
 Gap=     0.285 Goal=   None    Shift=    0.000
 Gap=     0.238 Goal=   None    Shift=    0.000
 RMSDP=2.48D-05 MaxDP=5.05D-04 DE=-2.64D-05 OVMax= 3.50D-03

 Cycle  21  Pass 1  IDiag  1:
 E= -344.466499037127     Delta-E=       -0.000003257145 Rises=F Damp=F
 DIIS: error= 3.62D-05 at cycle  12 NSaved=  12.
 NSaved=12 IEnMin=12 EnMin= -344.466499037127     IErMin=12 ErrMin= 3.62D-05
 ErrMax= 3.62D-05  0.00D+00 EMaxC= 1.00D-01 BMatC= 5.45D-07 BMatP= 1.86D-06
 IDIUse=1 WtCom= 1.00D+00 WtEn= 0.00D+00
 Coeff-Com:  0.696D-01-0.164D-01-0.118D+00 0.121D+00-0.223D-01-0.369D-01
 Coeff-Com:  0.318D-01 0.284D-01-0.106D+00-0.302D+00 0.354D+00 0.997D+00
 Coeff:      0.696D-01-0.164D-01-0.118D+00 0.121D+00-0.223D-01-0.369D-01
 Coeff:      0.318D-01 0.284D-01-0.106D+00-0.302D+00 0.354D+00 0.997D+00
 Gap=     0.285 Goal=   None    Shift=    0.000
 Gap=     0.238 Goal=   None    Shift=    0.000
 RMSDP=2.64D-05 MaxDP=5.34D-04 DE=-3.26D-06 OVMax= 3.79D-03

 Cycle  22  Pass 1  IDiag  1:
 E= -344.466500562351     Delta-E=       -0.000001525224 Rises=F Damp=F
 DIIS: error= 1.35D-05 at cycle  13 NSaved=  13.
 NSaved=13 IEnMin=13 EnMin= -344.466500562351     IErMin=13 ErrMin= 1.35D-05
 ErrMax= 1.35D-05  0.00D+00 EMaxC= 1.00D-01 BMatC= 6.41D-08 BMatP= 5.45D-07
 IDIUse=1 WtCom= 1.00D+00 WtEn= 0.00D+00
 Coeff-Com:  0.361D-02-0.123D-01 0.928D-02 0.117D-01 0.338D-02-0.190D-01
 Coeff-Com: -0.139D-01-0.215D-02 0.106D+00-0.129D+00-0.720D-01-0.383D-01
 Coeff-Com:  0.115D+01
 Coeff:      0.361D-02-0.123D-01 0.928D-02 0.117D-01 0.338D-02-0.190D-01
 Coeff:     -0.139D-01-0.215D-02 0.106D+00-0.129D+00-0.720D-01-0.383D-01
 Coeff:      0.115D+01
 Gap=     0.286 Goal=   None    Shift=    0.000
 Gap=     0.238 Goal=   None    Shift=    0.000
 RMSDP=4.57D-06 MaxDP=8.26D-05 DE=-1.53D-06 OVMax= 5.09D-04

 Cycle  23  Pass 1  IDiag  1:
 E= -344.466500666391     Delta-E=       -0.000000104039 Rises=F Damp=F
 DIIS: error= 4.63D-06 at cycle  14 NSaved=  14.
 NSaved=14 IEnMin=14 EnMin= -344.466500666391     IErMin=14 ErrMin= 4.63D-06
 ErrMax= 4.63D-06  0.00D+00 EMaxC= 1.00D-01 BMatC= 2.14D-08 BMatP= 6.41D-08
 IDIUse=1 WtCom= 1.00D+00 WtEn= 0.00D+00
 Coeff-Com: -0.206D-02-0.269D-03 0.645D-02-0.320D-02-0.219D-02-0.675D-02
 Coeff-Com:  0.908D-02-0.121D-01 0.238D-01 0.604D-01-0.389D-01-0.323D+00
 Coeff-Com:  0.495D-01 0.124D+01
 Coeff:     -0.206D-02-0.269D-03 0.645D-02-0.320D-02-0.219D-02-0.675D-02
 Coeff:      0.908D-02-0.121D-01 0.238D-01 0.604D-01-0.389D-01-0.323D+00
 Coeff:      0.495D-01 0.124D+01
 Gap=     0.286 Goal=   None    Shift=    0.000
 Gap=     0.239 Goal=   None    Shift=    0.000
 RMSDP=3.55D-06 MaxDP=7.58D-05 DE=-1.04D-07 OVMax= 4.52D-04

 Cycle  24  Pass 1  IDiag  1:
 E= -344.466500694448     Delta-E=       -0.000000028057 Rises=F Damp=F
 DIIS: error= 1.25D-06 at cycle  15 NSaved=  15.
 NSaved=15 IEnMin=15 EnMin= -344.466500694448     IErMin=15 ErrMin= 1.25D-06
 ErrMax= 1.25D-06  0.00D+00 EMaxC= 1.00D-01 BMatC= 1.00D-09 BMatP= 2.14D-08
 IDIUse=1 WtCom= 1.00D+00 WtEn= 0.00D+00
 Coeff-Com: -0.971D-03 0.202D-02-0.773D-03 0.104D-02-0.211D-02 0.639D-04
 Coeff-Com:  0.271D-02 0.124D-02-0.114D-01 0.120D-01 0.179D-01 0.517D-02
 Coeff-Com: -0.189D+00 0.734D-01 0.109D+01
 Coeff:     -0.971D-03 0.202D-02-0.773D-03 0.104D-02-0.211D-02 0.639D-04
 Coeff:      0.271D-02 0.124D-02-0.114D-01 0.120D-01 0.179D-01 0.517D-02
 Coeff:     -0.189D+00 0.734D-01 0.109D+01
 Gap=     0.286 Goal=   None    Shift=    0.000
 Gap=     0.239 Goal=   None    Shift=    0.000
 RMSDP=7.45D-07 MaxDP=1.52D-05 DE=-2.81D-08 OVMax= 6.98D-05

 Cycle  25  Pass 1  IDiag  1:
 E= -344.466500696048     Delta-E=       -0.000000001600 Rises=F Damp=F
 DIIS: error= 5.28D-07 at cycle  16 NSaved=  16.
 NSaved=16 IEnMin=16 EnMin= -344.466500696048     IErMin=16 ErrMin= 5.28D-07
 ErrMax= 5.28D-07  0.00D+00 EMaxC= 1.00D-01 BMatC= 2.13D-10 BMatP= 1.00D-09
 IDIUse=1 WtCom= 1.00D+00 WtEn= 0.00D+00
 Coeff-Com:  0.471D-03 0.547D-03-0.165D-02 0.166D-02-0.753D-03 0.130D-03
 Coeff-Com: -0.104D-03 0.215D-02-0.595D-02-0.501D-02 0.132D-01 0.448D-01
 Coeff-Com: -0.632D-01-0.143D+00 0.320D+00 0.837D+00
 Coeff:      0.471D-03 0.547D-03-0.165D-02 0.166D-02-0.753D-03 0.130D-03
 Coeff:     -0.104D-03 0.215D-02-0.595D-02-0.501D-02 0.132D-01 0.448D-01
 Coeff:     -0.632D-01-0.143D+00 0.320D+00 0.837D+00
 Gap=     0.286 Goal=   None    Shift=    0.000
 Gap=     0.239 Goal=   None    Shift=    0.000
 RMSDP=3.19D-07 MaxDP=5.70D-06 DE=-1.60D-09 OVMax= 3.19D-05

 Cycle  26  Pass 1  IDiag  1:
 E= -344.466500696099     Delta-E=       -0.000000000051 Rises=F Damp=F
 DIIS: error= 2.78D-07 at cycle  17 NSaved=  17.
 NSaved=17 IEnMin=17 EnMin= -344.466500696099     IErMin=17 ErrMin= 2.78D-07
 ErrMax= 2.78D-07  0.00D+00 EMaxC= 1.00D-01 BMatC= 7.41D-11 BMatP= 2.13D-10
 IDIUse=1 WtCom= 1.00D+00 WtEn= 0.00D+00
 Coeff-Com: -0.996D-04-0.313D-03 0.504D-03-0.321D-04-0.553D-04-0.294D-03
 Coeff-Com: -0.172D-03-0.335D-03 0.155D-02-0.258D-02-0.175D-02-0.214D-02
 Coeff-Com:  0.345D-01-0.322D-01-0.223D+00 0.639D-01 0.116D+01
 Coeff:     -0.996D-04-0.313D-03 0.504D-03-0.321D-04-0.553D-04-0.294D-03
 Coeff:     -0.172D-03-0.335D-03 0.155D-02-0.258D-02-0.175D-02-0.214D-02
 Coeff:      0.345D-01-0.322D-01-0.223D+00 0.639D-01 0.116D+01
 Gap=     0.286 Goal=   None    Shift=    0.000
 Gap=     0.239 Goal=   None    Shift=    0.000
 RMSDP=3.85D-07 MaxDP=7.97D-06 DE=-5.10D-11 OVMax= 5.00D-05

 Cycle  27  Pass 1  IDiag  1:
 E= -344.466500696233     Delta-E=       -0.000000000134 Rises=F Damp=F
 DIIS: error= 1.49D-07 at cycle  18 NSaved=  18.
 NSaved=18 IEnMin=18 EnMin= -344.466500696233     IErMin=18 ErrMin= 1.49D-07
 ErrMax= 1.49D-07  0.00D+00 EMaxC= 1.00D-01 BMatC= 1.11D-11 BMatP= 7.41D-11
 IDIUse=1 WtCom= 1.00D+00 WtEn= 0.00D+00
 Coeff-Com:  0.699D-04-0.156D-03 0.145D-03-0.603D-04 0.115D-03-0.115D-03
 Coeff-Com: -0.167D-03-0.223D-03 0.122D-02-0.417D-03-0.102D-02-0.264D-02
 Coeff-Com:  0.974D-02 0.109D-01-0.515D-01-0.769D-01 0.150D+00 0.961D+00
 Coeff:      0.699D-04-0.156D-03 0.145D-03-0.603D-04 0.115D-03-0.115D-03
 Coeff:     -0.167D-03-0.223D-03 0.122D-02-0.417D-03-0.102D-02-0.264D-02
 Coeff:      0.974D-02 0.109D-01-0.515D-01-0.769D-01 0.150D+00 0.961D+00
 Gap=     0.286 Goal=   None    Shift=    0.000
 Gap=     0.239 Goal=   None    Shift=    0.000
 RMSDP=1.75D-07 MaxDP=3.46D-06 DE=-1.34D-10 OVMax= 2.07D-05

 Cycle  28  Pass 1  IDiag  1:
 E= -344.466500696257     Delta-E=       -0.000000000024 Rises=F Damp=F
 DIIS: error= 6.52D-08 at cycle  19 NSaved=  19.
 NSaved=19 IEnMin=19 EnMin= -344.466500696257     IErMin=19 ErrMin= 6.52D-08
 ErrMax= 6.52D-08  0.00D+00 EMaxC= 1.00D-01 BMatC= 3.59D-12 BMatP= 1.11D-11
 IDIUse=1 WtCom= 1.00D+00 WtEn= 0.00D+00
 Coeff-Com: -0.110D-03 0.369D-04 0.141D-03-0.146D-03 0.126D-04 0.838D-04
 Coeff-Com:  0.916D-04-0.421D-04-0.168D-04 0.816D-03-0.311D-03-0.247D-02
 Coeff-Com: -0.306D-02 0.144D-01 0.281D-01-0.565D-01-0.230D+00 0.361D+00
 Coeff-Com:  0.888D+00
 Coeff:     -0.110D-03 0.369D-04 0.141D-03-0.146D-03 0.126D-04 0.838D-04
 Coeff:      0.916D-04-0.421D-04-0.168D-04 0.816D-03-0.311D-03-0.247D-02
 Coeff:     -0.306D-02 0.144D-01 0.281D-01-0.565D-01-0.230D+00 0.361D+00
 Coeff:      0.888D+00
 Gap=     0.286 Goal=   None    Shift=    0.000
 Gap=     0.239 Goal=   None    Shift=    0.000
 RMSDP=7.57D-08 MaxDP=1.50D-06 DE=-2.40D-11 OVMax= 8.00D-06

 Cycle  29  Pass 1  IDiag  1:
 E= -344.466500696262     Delta-E=       -0.000000000005 Rises=F Damp=F
 DIIS: error= 4.04D-08 at cycle  20 NSaved=  20.
 NSaved=20 IEnMin=20 EnMin= -344.466500696262     IErMin=20 ErrMin= 4.04D-08
 ErrMax= 4.04D-08  0.00D+00 EMaxC= 1.00D-01 BMatC= 6.35D-13 BMatP= 3.59D-12
 IDIUse=1 WtCom= 1.00D+00 WtEn= 0.00D+00
 Coeff-Com: -0.198D-05 0.170D-04-0.266D-04-0.161D-04 0.146D-04 0.482D-04
 Coeff-Com: -0.675D-05 0.231D-04-0.193D-03-0.771D-04 0.199D-03 0.104D-02
 Coeff-Com: -0.110D-02-0.410D-02 0.565D-02 0.222D-01 0.176D-01-0.287D+00
 Coeff-Com: -0.103D+00 0.135D+01
 Coeff:     -0.198D-05 0.170D-04-0.266D-04-0.161D-04 0.146D-04 0.482D-04
 Coeff:     -0.675D-05 0.231D-04-0.193D-03-0.771D-04 0.199D-03 0.104D-02
 Coeff:     -0.110D-02-0.410D-02 0.565D-02 0.222D-01 0.176D-01-0.287D+00
 Coeff:     -0.103D+00 0.135D+01
 Gap=     0.286 Goal=   None    Shift=    0.000
 Gap=     0.239 Goal=   None    Shift=    0.000
 RMSDP=2.33D-08 MaxDP=4.84D-07 DE=-5.12D-12 OVMax= 2.74D-06

 Cycle  30  Pass 1  IDiag  1:
 E= -344.466500696263     Delta-E=       -0.000000000001 Rises=F Damp=F
 DIIS: error= 7.53D-09 at cycle  21 NSaved=  20.
 NSaved=20 IEnMin=20 EnMin= -344.466500696263     IErMin=20 ErrMin= 7.53D-09
 ErrMax= 7.53D-09  0.00D+00 EMaxC= 1.00D-01 BMatC= 6.87D-14 BMatP= 6.35D-13
 IDIUse=1 WtCom= 1.00D+00 WtEn= 0.00D+00
 Coeff-Com: -0.454D-05 0.438D-05-0.298D-05 0.181D-05-0.105D-05-0.164D-04
 Coeff-Com: -0.879D-05 0.407D-05-0.751D-04-0.570D-04 0.196D-03 0.805D-03
 Coeff-Com: -0.191D-02-0.758D-02 0.744D-02 0.487D-01-0.622D-01-0.123D+00
 Coeff-Com: -0.157D+00 0.129D+01
 Coeff:     -0.454D-05 0.438D-05-0.298D-05 0.181D-05-0.105D-05-0.164D-04
 Coeff:     -0.879D-05 0.407D-05-0.751D-04-0.570D-04 0.196D-03 0.805D-03
 Coeff:     -0.191D-02-0.758D-02 0.744D-02 0.487D-01-0.622D-01-0.123D+00
 Coeff:     -0.157D+00 0.129D+01
 Gap=     0.286 Goal=   None    Shift=    0.000
 Gap=     0.239 Goal=   None    Shift=    0.000
 RMSDP=4.69D-09 MaxDP=1.07D-07 DE=-6.82D-13 OVMax= 3.28D-07

 SCF Done:  E(UwB97XD) =  -344.466500696     A.U. after   30 cycles
            NFock= 30  Conv=0.47D-08     -V/T= 2.0092
 <Sx>= 0.0000 <Sy>= 0.0000 <Sz>= 0.5000 <S**2>= 1.5590 S= 0.8450
 <L.S>=  0.00000000000    
 KE= 3.413214072323D+02 PE=-1.385772661593D+03 EE= 4.091780593689D+02
 Annihilation of the first spin contaminant:
 S**2 before annihilation     1.5590,   after     0.9119
 Leave Link  502 at Tue May 20 10:46:52 2025, MaxMem=  3758096384 cpu:              85.1 elap:              16.9
 (Enter /gpfs/fs1/soft/bebop/software/custom-built/gaussian/16-c.02/g16/l508.exe)
 QCSCF skips out because SCF is already converged.
 Leave Link  508 at Tue May 20 10:46:52 2025, MaxMem=  3758096384 cpu:               0.0 elap:               0.0
 (Enter /gpfs/fs1/soft/bebop/software/custom-built/gaussian/16-c.02/g16/l601.exe)
 Copying SCF densities to generalized density rwf, IOpCl= 1 IROHF=0.

 **********************************************************************

            Population analysis using the SCF Density.

 **********************************************************************

 Orbital symmetries:
 Alpha Orbitals:
       Occupied  (A) (A) (A) (A) (A) (A) (A) (A) (A) (A) (A) (A)
                 (A) (A) (A) (A) (A) (A) (A) (A) (A) (A) (A) (A)
                 (A) (A) (A)
       Virtual   (A) (A) (A) (A) (A) (A) (A) (A) (A) (A) (A) (A)
                 (A) (A) (A) (A) (A) (A) (A) (A) (A) (A) (A) (A)
                 (A) (A) (A) (A) (A) (A) (A) (A) (A) (A) (A) (A)
                 (A) (A) (A) (A) (A) (A) (A) (A) (A) (A) (A) (A)
                 (A) (A) (A) (A) (A) (A) (A) (A) (A) (A) (A) (A)
                 (A) (A) (A) (A) (A) (A) (A) (A) (A) (A) (A) (A)
                 (A) (A) (A) (A) (A) (A) (A) (A) (A) (A) (A) (A)
                 (A) (A) (A) (A) (A) (A) (A) (A) (A) (A) (A) (A)
                 (A) (A) (A) (A) (A) (A) (A) (A) (A) (A)
 Beta  Orbitals:
       Occupied  (A) (A) (A) (A) (A) (A) (A) (A) (A) (A) (A) (A)
                 (A) (A) (A) (A) (A) (A) (A) (A) (A) (A) (A) (A)
                 (A) (A)
       Virtual   (A) (A) (A) (A) (A) (A) (A) (A) (A) (A) (A) (A)
                 (A) (A) (A) (A) (A) (A) (A) (A) (A) (A) (A) (A)
                 (A) (A) (A) (A) (A) (A) (A) (A) (A) (A) (A) (A)
                 (A) (A) (A) (A) (A) (A) (A) (A) (A) (A) (A) (A)
                 (A) (A) (A) (A) (A) (A) (A) (A) (A) (A) (A) (A)
                 (A) (A) (A) (A) (A) (A) (A) (A) (A) (A) (A) (A)
                 (A) (A) (A) (A) (A) (A) (A) (A) (A) (A) (A) (A)
                 (A) (A) (A) (A) (A) (A) (A) (A) (A) (A) (A) (A)
                 (A) (A) (A) (A) (A) (A) (A) (A) (A) (A) (A)
 The electronic state is 2-A.
 Alpha  occ. eigenvalues --  -19.34372 -19.32827 -10.37371 -10.32107 -10.32102
 Alpha  occ. eigenvalues --  -10.30515 -10.29486  -1.23599  -1.03350  -0.90575
 Alpha  occ. eigenvalues --   -0.81370  -0.75675  -0.66619  -0.64091  -0.63393
 Alpha  occ. eigenvalues --   -0.59588  -0.55295  -0.52584  -0.50959  -0.47565
 Alpha  occ. eigenvalues --   -0.46632  -0.44818  -0.43910  -0.40340  -0.38227
 Alpha  occ. eigenvalues --   -0.29786  -0.27777
 Alpha virt. eigenvalues --    0.00804   0.08005   0.12661   0.14118   0.15384
 Alpha virt. eigenvalues --    0.18749   0.19902   0.22493   0.22736   0.25693
 Alpha virt. eigenvalues --    0.27293   0.31690   0.33906   0.37020   0.41653
 Alpha virt. eigenvalues --    0.48466   0.51975   0.54421   0.54953   0.57009
 Alpha virt. eigenvalues --    0.59377   0.61051   0.61744   0.64095   0.66312
 Alpha virt. eigenvalues --    0.67970   0.71136   0.71966   0.72878   0.73525
 Alpha virt. eigenvalues --    0.76035   0.77436   0.78480   0.79917   0.80885
 Alpha virt. eigenvalues --    0.82533   0.83917   0.88173   0.91387   0.94207
 Alpha virt. eigenvalues --    0.96867   1.04307   1.06985   1.10277   1.14855
 Alpha virt. eigenvalues --    1.19826   1.21235   1.26739   1.34231   1.38532
 Alpha virt. eigenvalues --    1.39439   1.45477   1.46163   1.50058   1.55867
 Alpha virt. eigenvalues --    1.60194   1.62290   1.65805   1.69125   1.71194
 Alpha virt. eigenvalues --    1.75368   1.77410   1.82229   1.82635   1.86075
 Alpha virt. eigenvalues --    1.88096   1.90121   1.93348   1.95072   1.97647
 Alpha virt. eigenvalues --    2.00372   2.02388   2.09893   2.10721   2.14641
 Alpha virt. eigenvalues --    2.16615   2.18072   2.25366   2.27822   2.28995
 Alpha virt. eigenvalues --    2.32750   2.36311   2.40747   2.45883   2.49904
 Alpha virt. eigenvalues --    2.51117   2.55637   2.62299   2.64227   2.66249
 Alpha virt. eigenvalues --    2.72356   2.81009   2.83380   2.88826   2.92733
 Alpha virt. eigenvalues --    2.96789   3.01871   3.05573   3.07882   3.12554
 Alpha virt. eigenvalues --    3.14552   3.15501   3.39355   3.42795   3.64211
 Alpha virt. eigenvalues --    3.92815
  Beta  occ. eigenvalues --  -19.34234 -19.32775 -10.36830 -10.31130 -10.31011
  Beta  occ. eigenvalues --  -10.30984 -10.30343  -1.23300  -1.03009  -0.89791
  Beta  occ. eigenvalues --   -0.80807  -0.75156  -0.66251  -0.63753  -0.61987
  Beta  occ. eigenvalues --   -0.59163  -0.54761  -0.51857  -0.50673  -0.46854
  Beta  occ. eigenvalues --   -0.45932  -0.44043  -0.43312  -0.39815  -0.35449
  Beta  occ. eigenvalues --   -0.27176
  Beta virt. eigenvalues --   -0.03321   0.04355   0.08157   0.13089   0.14194
  Beta virt. eigenvalues --    0.15641   0.19057   0.19779   0.22741   0.22939
  Beta virt. eigenvalues --    0.25638   0.27879   0.32534   0.35341   0.37528
  Beta virt. eigenvalues --    0.42168   0.48501   0.52701   0.54741   0.56601
  Beta virt. eigenvalues --    0.57140   0.60959   0.62474   0.63053   0.65809
  Beta virt. eigenvalues --    0.66327   0.68945   0.71016   0.72278   0.73346
  Beta virt. eigenvalues --    0.74108   0.76105   0.77399   0.78925   0.80351
  Beta virt. eigenvalues --    0.80796   0.82855   0.84204   0.88305   0.91220
  Beta virt. eigenvalues --    0.94712   0.97081   1.04253   1.07097   1.10204
  Beta virt. eigenvalues --    1.15326   1.20317   1.21645   1.26721   1.34549
  Beta virt. eigenvalues --    1.38605   1.39595   1.46046   1.46274   1.50115
  Beta virt. eigenvalues --    1.56284   1.61406   1.62676   1.66574   1.70105
  Beta virt. eigenvalues --    1.72937   1.76500   1.78035   1.82766   1.83003
  Beta virt. eigenvalues --    1.87033   1.88783   1.91730   1.93754   1.95752
  Beta virt. eigenvalues --    1.98004   2.01431   2.02528   2.09874   2.12046
  Beta virt. eigenvalues --    2.15019   2.17605   2.18694   2.25624   2.27924
  Beta virt. eigenvalues --    2.29179   2.33377   2.37284   2.41892   2.46917
  Beta virt. eigenvalues --    2.50135   2.51471   2.55751   2.63634   2.65047
  Beta virt. eigenvalues --    2.67548   2.72520   2.82387   2.83762   2.88997
  Beta virt. eigenvalues --    2.92963   2.98220   3.01943   3.06169   3.08100
  Beta virt. eigenvalues --    3.12650   3.14975   3.15938   3.39592   3.43345
  Beta virt. eigenvalues --    3.64292   3.92927
          Condensed to atoms (all electrons):
               1          2          3          4          5          6
     1  C    5.185240   0.366370   0.398265  -0.079095  -0.026985  -0.089396
     2  C    0.366370   5.131479  -0.034088   0.381047   0.373251  -0.113001
     3  H    0.398265  -0.034088   0.613904   0.007283  -0.006405   0.004406
     4  C   -0.079095   0.381047   0.007283   4.986699  -0.034985   0.500172
     5  H   -0.026985   0.373251  -0.006405  -0.034985   0.645391   0.008196
     6  C   -0.089396  -0.113001   0.004406   0.500172   0.008196   4.996779
     7  H   -0.006140  -0.035443   0.001538   0.372487  -0.008005  -0.027571
     8  C    0.455879  -0.067495  -0.032306  -0.052140   0.009431   0.130452
     9  H   -0.004755   0.001022  -0.000022  -0.016797  -0.000297   0.374952
    10  H    0.000914   0.006191   0.000129  -0.016936  -0.000343   0.370339
    11  H   -0.041119   0.011376  -0.008884   0.000558  -0.000338  -0.009559
    12  O   -0.050740   0.015297   0.002384  -0.003662   0.000040  -0.028778
    13  O    0.007972  -0.000155  -0.000129   0.000822  -0.000000  -0.009850
    14  H   -0.000962   0.000070   0.000023  -0.000072   0.000000   0.000823
               7          8          9         10         11         12
     1  C   -0.006140   0.455879  -0.004755   0.000914  -0.041119  -0.050740
     2  C   -0.035443  -0.067495   0.001022   0.006191   0.011376   0.015297
     3  H    0.001538  -0.032306  -0.000022   0.000129  -0.008884   0.002384
     4  C    0.372487  -0.052140  -0.016797  -0.016936   0.000558  -0.003662
     5  H   -0.008005   0.009431  -0.000297  -0.000343  -0.000338   0.000040
     6  C   -0.027571   0.130452   0.374952   0.370339  -0.009559  -0.028778
     7  H    0.677510  -0.001201   0.005127  -0.014798   0.000021  -0.000111
     8  C   -0.001201   4.768887   0.006046  -0.004516   0.396480   0.276060
     9  H    0.005127   0.006046   0.575588  -0.027910   0.000599  -0.007834
    10  H   -0.014798  -0.004516  -0.027910   0.637516   0.000042   0.001480
    11  H    0.000021   0.396480   0.000599   0.000042   0.632861  -0.035898
    12  O   -0.000111   0.276060  -0.007834   0.001480  -0.035898   7.947823
    13  O   -0.000009  -0.045948   0.014993   0.000021   0.008610   0.107917
    14  H    0.000002   0.001367  -0.000610  -0.000029   0.001443  -0.014485
              13         14
     1  C    0.007972  -0.000962
     2  C   -0.000155   0.000070
     3  H   -0.000129   0.000023
     4  C    0.000822  -0.000072
     5  H   -0.000000   0.000000
     6  C   -0.009850   0.000823
     7  H   -0.000009   0.000002
     8  C   -0.045948   0.001367
     9  H    0.014993  -0.000610
    10  H    0.000021  -0.000029
    11  H    0.008610   0.001443
    12  O    0.107917  -0.014485
    13  O    7.757409   0.309526
    14  H    0.309526   0.499669
          Atomic-Atomic Spin Densities.
               1          2          3          4          5          6
     1  C   -0.635466  -0.053048   0.000797  -0.006598   0.003493   0.093233
     2  C   -0.053048   0.979177  -0.016495  -0.021337   0.000264   0.029001
     3  H    0.000797  -0.016495   0.074292   0.002140  -0.002244  -0.000402
     4  C   -0.006598  -0.021337   0.002140   0.940996   0.003108  -0.019553
     5  H    0.003493   0.000264  -0.002244   0.003108  -0.028410  -0.000966
     6  C    0.093233   0.029001  -0.000402  -0.019553  -0.000966  -0.845001
     7  H   -0.001227  -0.018935   0.003095  -0.002622  -0.002463  -0.001252
     8  C    0.056202  -0.020220  -0.007791  -0.030088   0.000095  -0.031930
     9  H   -0.004829   0.001014   0.000165  -0.006612  -0.000021   0.016131
    10  H   -0.002296  -0.001330  -0.000234  -0.002216   0.000052   0.010325
    11  H    0.001016   0.000895  -0.001062   0.000691   0.000024   0.002013
    12  O   -0.002902  -0.005623   0.000226   0.002211   0.000021   0.022486
    13  O   -0.000190   0.000154  -0.000024   0.000049  -0.000000  -0.000170
    14  H    0.000039   0.000001   0.000004  -0.000005  -0.000000  -0.000156
               7          8          9         10         11         12
     1  C   -0.001227   0.056202  -0.004829  -0.002296   0.001016  -0.002902
     2  C   -0.018935  -0.020220   0.001014  -0.001330   0.000895  -0.005623
     3  H    0.003095  -0.007791   0.000165  -0.000234  -0.001062   0.000226
     4  C   -0.002622  -0.030088  -0.006612  -0.002216   0.000691   0.002211
     5  H   -0.002463   0.000095  -0.000021   0.000052   0.000024   0.000021
     6  C   -0.001252  -0.031930   0.016131   0.010325   0.002013   0.022486
     7  H    0.028273  -0.000529   0.001069  -0.001370  -0.000028  -0.000034
     8  C   -0.000529   0.497849  -0.005519   0.001624  -0.007162  -0.038859
     9  H    0.001069  -0.005519   0.039509  -0.006382   0.000272  -0.000744
    10  H   -0.001370   0.001624  -0.006382   0.033248  -0.000254  -0.000400
    11  H   -0.000028  -0.007162   0.000272  -0.000254  -0.011497  -0.001249
    12  O   -0.000034  -0.038859  -0.000744  -0.000400  -0.001249   0.071642
    13  O   -0.000001  -0.006184  -0.000575   0.000025   0.001860  -0.005212
    14  H    0.000000   0.000099   0.000077  -0.000000  -0.000196   0.000333
              13         14
     1  C   -0.000190   0.000039
     2  C    0.000154   0.000001
     3  H   -0.000024   0.000004
     4  C    0.000049  -0.000005
     5  H   -0.000000  -0.000000
     6  C   -0.000170  -0.000156
     7  H   -0.000001   0.000000
     8  C   -0.006184   0.000099
     9  H   -0.000575   0.000077
    10  H    0.000025  -0.000000
    11  H    0.001860  -0.000196
    12  O   -0.005212   0.000333
    13  O    0.026118   0.000526
    14  H    0.000526  -0.001304
 Mulliken charges and spin densities:
               1          2
     1  C   -0.115447  -0.551776
     2  C   -0.035921   0.873518
     3  H    0.053903   0.052465
     4  C   -0.045380   0.860163
     5  H    0.041047  -0.027047
     6  C   -0.107966  -0.726243
     7  H    0.036595   0.003976
     8  C    0.159002   0.407588
     9  H    0.079897   0.033556
    10  H    0.047901   0.030791
    11  H    0.043808  -0.014678
    12  O   -0.209493   0.041896
    13  O   -0.151179   0.016375
    14  H    0.203234  -0.000584
 Sum of Mulliken charges =  -0.00000   1.00000
 Mulliken charges and spin densities with hydrogens summed into heavy atoms:
               1          2
     1  C   -0.061544  -0.499311
     2  C    0.005126   0.846471
     4  C   -0.008786   0.864139
     6  C    0.019833  -0.661895
     8  C    0.202810   0.392910
    12  O   -0.209493   0.041896
    13  O    0.052054   0.015792
 Electronic spatial extent (au):  <R**2>=            738.5384
 Charge=             -0.0000 electrons
 Dipole moment (field-independent basis, Debye):
    X=             -1.2817    Y=             -0.8640    Z=              2.0552  Tot=              2.5716
 Quadrupole moment (field-independent basis, Debye-Ang):
   XX=            -32.6715   YY=            -44.6010   ZZ=            -41.9553
   XY=              0.3324   XZ=              2.2897   YZ=             -0.5848
 Traceless Quadrupole moment (field-independent basis, Debye-Ang):
   XX=              7.0711   YY=             -4.8584   ZZ=             -2.2127
   XY=              0.3324   XZ=              2.2897   YZ=             -0.5848
 Octapole moment (field-independent basis, Debye-Ang**2):
  XXX=            -48.5027  YYY=              0.2135  ZZZ=              5.0043  XYY=             -7.5544
  XXY=             -9.5724  XXZ=             -1.4184  XZZ=             -8.4379  YZZ=             -0.9058
  YYZ=              2.3218  XYZ=              1.5283
 Hexadecapole moment (field-independent basis, Debye-Ang**3):
 XXXX=           -432.7376 YYYY=           -276.5464 ZZZZ=           -120.2924 XXXY=              2.1763
 XXXZ=             29.6983 YYYX=             -8.7230 YYYZ=              2.5621 ZZZX=             11.6157
 ZZZY=             -1.6610 XXYY=           -142.7155 XXZZ=           -114.6618 YYZZ=            -62.6488
 XXYZ=              3.7659 YYXZ=              6.2175 ZZXY=             -1.4903
 N-N= 2.908066942960D+02 E-N=-1.385772661223D+03  KE= 3.413214072323D+02
                          Isotropic Fermi Contact Couplings
        Atom                 a.u.       MegaHertz       Gauss      10(-4) cm-1
     1  C(13)             -0.09555    -107.41465     -38.32822     -35.82967
     2  C(13)              0.36184     406.77593     145.14777     135.68585
     3  H(1)               0.01914      85.56585      30.53202      28.54170
     4  C(13)              0.35226     396.01122     141.30665     132.09512
     5  H(1)              -0.00517     -23.12460      -8.25143      -7.71354
     6  C(13)             -0.20891    -234.85143     -83.80083     -78.33800
     7  H(1)               0.00824      36.81441      13.13630      12.27997
     8  C(13)              0.11717     131.72383      47.00234      43.93834
     9  H(1)               0.01399      62.52501      22.31048      20.85610
    10  H(1)               0.01008      45.07851      16.08513      15.03657
    11  H(1)              -0.00442     -19.75164      -7.04788      -6.58844
    12  O(17)              0.00928      -5.62759      -2.00807      -1.87716
    13  O(17)              0.00465      -2.81688      -1.00513      -0.93961
    14  H(1)              -0.00038      -1.68646      -0.60177      -0.56254
 --------------------------------------------------------
       Center         ----  Spin Dipole Couplings  ----
                      3XX-RR        3YY-RR        3ZZ-RR
 --------------------------------------------------------
     1   Atom        0.265498     -0.461693      0.196195
     2   Atom       -0.051407     -0.398389      0.449796
     3   Atom        0.014767     -0.005229     -0.009538
     4   Atom       -0.375051      0.035179      0.339872
     5   Atom        0.034984     -0.012694     -0.022289
     6   Atom        0.219813     -0.509205      0.289392
     7   Atom        0.008562     -0.029857      0.021296
     8   Atom       -0.193487      0.404410     -0.210923
     9   Atom       -0.003992      0.004262     -0.000270
    10   Atom        0.037736     -0.003873     -0.033863
    11   Atom       -0.014990     -0.007270      0.022260
    12   Atom        0.103230      0.010749     -0.113979
    13   Atom       -0.036769      0.083238     -0.046470
    14   Atom        0.008064     -0.003753     -0.004311
 --------------------------------------------------------
                        XY            XZ            YZ
 --------------------------------------------------------
     1   Atom       -0.113504     -0.082031     -0.285249
     2   Atom        0.106060      0.606290      0.132122
     3   Atom        0.003374     -0.031711     -0.006115
     4   Atom        0.185495     -0.193156     -0.579029
     5   Atom       -0.052511      0.005712      0.019553
     6   Atom       -0.357398      0.074095      0.243964
     7   Atom        0.022548      0.053923     -0.008038
     8   Atom        0.183192     -0.015517      0.024447
     9   Atom       -0.003230     -0.042604      0.026575
    10   Atom       -0.019480     -0.010984     -0.015416
    11   Atom        0.003214     -0.021627      0.005191
    12   Atom        0.235708     -0.172150     -0.137827
    13   Atom       -0.055592      0.032418     -0.049166
    14   Atom       -0.000441      0.002193     -0.000231
 --------------------------------------------------------


 ---------------------------------------------------------------------------------
              Anisotropic Spin Dipole Couplings in Principal Axis System
 ---------------------------------------------------------------------------------

       Atom             a.u.   MegaHertz   Gauss  10(-4) cm-1        Axes

              Baa    -0.5895   -79.106   -28.227   -26.387  0.1563  0.9231  0.3514
     1 C(13)  Bbb     0.2572    34.513    12.315    11.512  0.7680 -0.3373  0.5444
              Bcc     0.3323    44.593    15.912    14.875 -0.6211 -0.1848  0.7616
 
              Baa    -0.4620   -61.997   -22.122   -20.680  0.8073 -0.3305 -0.4889
     2 C(13)  Bbb    -0.4156   -55.764   -19.898   -18.601  0.2080  0.9346 -0.2884
              Bcc     0.8776   117.761    42.020    39.281  0.5523  0.1312  0.8233
 
              Baa    -0.0317   -16.926    -6.039    -5.646  0.5535  0.1198  0.8242
     3 H(1)   Bbb    -0.0058    -3.077    -1.098    -1.027 -0.1874  0.9821 -0.0169
              Bcc     0.0375    20.003     7.138     6.672  0.8115  0.1451 -0.5661
 
              Baa    -0.4526   -60.730   -21.670   -20.257  0.8066 -0.5534 -0.2078
     4 C(13)  Bbb    -0.3918   -52.582   -18.763   -17.540  0.5512  0.5773  0.6024
              Bcc     0.8444   113.312    40.433    37.797 -0.2134 -0.6004  0.7707
 
              Baa    -0.0575   -30.655   -10.938   -10.225  0.4537  0.7455 -0.4882
     5 H(1)   Bbb    -0.0117    -6.264    -2.235    -2.089  0.3172  0.3769  0.8703
              Bcc     0.0692    36.918    13.173    12.315  0.8328 -0.5497 -0.0655
 
              Baa    -0.7191   -96.499   -34.433   -32.189  0.3617  0.8997 -0.2442
     6 C(13)  Bbb     0.3358    45.059    16.078    15.030  0.6364 -0.0469  0.7699
              Bcc     0.3833    51.441    18.355    17.159  0.6813 -0.4339 -0.5895
 
              Baa    -0.0576   -30.713   -10.959   -10.245 -0.6072  0.6334  0.4798
     7 H(1)   Bbb    -0.0125    -6.673    -2.381    -2.226  0.4183  0.7682 -0.4847
              Bcc     0.0701    37.386    13.340    12.471  0.6755  0.0936  0.7314
 
              Baa    -0.2557   -34.309   -12.242   -11.444  0.8618 -0.2554  0.4383
     8 C(13)  Bbb    -0.2010   -26.967    -9.623    -8.995 -0.4292  0.0936  0.8983
              Bcc     0.4566    61.276    21.865    20.439  0.2705  0.9623  0.0290
 
              Baa    -0.0500   -26.682    -9.521    -8.900  0.6343 -0.3092  0.7085
     9 H(1)   Bbb    -0.0009    -0.504    -0.180    -0.168  0.5254  0.8448 -0.1016
              Bcc     0.0510    27.186     9.700     9.068 -0.5671  0.4367  0.6983
 
              Baa    -0.0444   -23.680    -8.450    -7.899  0.2204  0.4377  0.8717
    10 H(1)   Bbb    -0.0013    -0.710    -0.253    -0.237  0.2766  0.8289 -0.4862
              Bcc     0.0457    24.390     8.703     8.136  0.9354 -0.3483 -0.0616
 
              Baa    -0.0263   -14.022    -5.003    -4.677  0.8711 -0.2609  0.4160
    11 H(1)   Bbb    -0.0062    -3.301    -1.178    -1.101  0.2727  0.9616  0.0319
              Bcc     0.0325    17.323     6.181     5.778 -0.4083  0.0857  0.9088
 
              Baa    -0.2101    15.206     5.426     5.072  0.3700  0.1746  0.9125
    12 O(17)  Bbb    -0.1829    13.237     4.723     4.416 -0.5999  0.7949  0.0911
              Bcc     0.3931   -28.443   -10.149    -9.488  0.7094  0.5811 -0.3988
 
              Baa    -0.0744     5.384     1.921     1.796 -0.6413  0.0131  0.7671
    13 O(17)  Bbb    -0.0501     3.627     1.294     1.210  0.6746  0.4860  0.5556
              Bcc     0.1245    -9.011    -3.215    -3.006 -0.3656  0.8738 -0.3206
 
              Baa    -0.0047    -2.515    -0.897    -0.839 -0.1616  0.1596  0.9739
    14 H(1)   Bbb    -0.0037    -1.999    -0.713    -0.667  0.0648  0.9864 -0.1509
              Bcc     0.0085     4.514     1.611     1.506  0.9847 -0.0387  0.1698
 

 ---------------------------------------------------------------------------------

 No NMR shielding tensors so no spin-rotation constants.
 Leave Link  601 at Tue May 20 10:46:54 2025, MaxMem=  3758096384 cpu:               1.6 elap:               0.3
 (Enter /gpfs/fs1/soft/bebop/software/custom-built/gaussian/16-c.02/g16/l701.exe)
 ... and contract with generalized density number  0.
 Compute integral first derivatives.
 R6Disp: Adding Grimme-D2 dispersion energy 1st derivatives to the gradient.
   1 Symmetry operations used in ECPInt.
 ECPInt:  NShTT=    2016 NPrTT=    7252 LenC2=    2007 LenP2D=    5970.
 LDataN:  DoStor=T MaxTD1= 5 Len=  102
 Leave Link  701 at Tue May 20 10:46:54 2025, MaxMem=  3758096384 cpu:               0.5 elap:               0.1
 (Enter /gpfs/fs1/soft/bebop/software/custom-built/gaussian/16-c.02/g16/l702.exe)
 L702 exits ... SP integral derivatives will be done elsewhere.
 Leave Link  702 at Tue May 20 10:46:55 2025, MaxMem=  3758096384 cpu:               0.1 elap:               0.0
 (Enter /gpfs/fs1/soft/bebop/software/custom-built/gaussian/16-c.02/g16/l703.exe)
 Integral derivatives from FoFJK, PRISM(SPDF).
 Compute integral first derivatives, UseDBF=F ICtDFT=           0.
 Calling FoFJK, ICntrl=      2127 FMM=F ISym2X=0 I1Cent= 0 IOpClX= 1 NMat=1 NMatS=1 NMatT=0.
 FoFJK:  IHMeth= 1 ICntrl=    2127 DoSepK=T KAlg= 0 I1Cent=           0 FoldK=F
 IRaf=         1 NMat=       1 IRICut=       1 DoRegI=T DoRafI=F ISym2E= 0 IDoP0=0 IntGTp=1.
 FoFCou: FMM=F IPFlag=           0 FMFlag=      100000 FMFlg1=         800
         NFxFlg=           0 DoJE=F BraDBF=F KetDBF=F FulRan=T
         wScrn=  0.000000 ICntrl=      2527 IOpCl=  0 I1Cent=           0 NGrid=           0
         NMat0=    1 NMatS0=      1 NMatT0=    0 NMatD0=    1 NMtDS0=    0 NMtDT0=    0
 Symmetry not used in FoFCou.
 Leave Link  703 at Tue May 20 10:46:58 2025, MaxMem=  3758096384 cpu:              12.4 elap:               2.1
 (Enter /gpfs/fs1/soft/bebop/software/custom-built/gaussian/16-c.02/g16/l716.exe)
 Dipole        =-5.04263310D-01-3.39909924D-01 8.08574324D-01
 ***** Axes restored to original set *****
 -------------------------------------------------------------------
 Center     Atomic                   Forces (Hartrees/Bohr)
 Number     Number              X              Y              Z
 -------------------------------------------------------------------
      1        6           0.004752267    0.014182656    0.049500615
      2        6           0.026696515   -0.022398054   -0.030024848
      3        1           0.007104509    0.013350209   -0.006026310
      4        6          -0.037772853   -0.004037387   -0.061283296
      5        1          -0.004289975    0.010222246    0.007674543
      6        6           0.020049204    0.004685162    0.049695750
      7        1           0.007836995    0.000150515    0.008011690
      8        6          -0.034457360   -0.003143473   -0.001401360
      9        1          -0.009762197    0.004497600   -0.004980544
     10        1           0.004233752   -0.010857902    0.001475086
     11        1           0.000114608   -0.004638677   -0.006161851
     12        8           0.005989977   -0.017702433   -0.010942641
     13        8           0.010729679    0.015923953    0.003891473
     14        1          -0.001225120   -0.000234415    0.000571692
 -------------------------------------------------------------------
 Cartesian Forces:  Max     0.061283296 RMS     0.019424077
 -----------------------------------------------------------------------------------------------
                       Internal Coordinate Forces (Hartree/Bohr or radian)
  Cent   Atom   N1       Length/X         N2         Alpha/Y        N3         Beta/Z          J
 -----------------------------------------------------------------------------------------------
      1  C 
      2  C        1  -0.044750(     1)
      3  H        1   0.009138(     2)      2   0.003714(    14)
      4  C        2   0.005843(     3)      1   0.082756(    15)      3  -0.023952(    26)     0
      5  H        2   0.005245(     4)      1   0.012567(    16)      4   0.020482(    27)     0
      6  C        4  -0.012772(     5)      2   0.161062(    17)      1  -0.061440(    28)     0
      7  H        4   0.006977(     6)      2   0.000034(    18)      6   0.017190(    29)     0
      8  C        6   0.006680(     7)      4   0.104489(    19)      2   0.006674(    30)     0
      9  H        6   0.007752(     8)      4   0.005656(    20)      8   0.015308(    31)     0
     10  H        6   0.008979(     9)      4  -0.004239(    21)      8   0.013096(    32)     0
     11  H        8   0.007339(    10)      6  -0.004750(    22)      4   0.004694(    33)     0
     12  O        8  -0.016836(    11)      6   0.002358(    23)     11   0.003681(    34)     0
     13  O       12  -0.018740(    12)      8   0.003220(    24)      1  -0.004372(    35)     0
     14  H       13   0.000507(    13)     12   0.001196(    25)      8  -0.001975(    36)     0
 -----------------------------------------------------------------------------------------------
 Internal  Forces:  Max     0.161062125 RMS     0.038288114
 Force constants in internal coordinates: 
                1             2             3             4             5 
      1  0.525389D+00
      2  0.000000D+00  0.355544D+00
      3 -0.371460D-01  0.000000D+00  0.381662D+00
      4  0.000000D+00  0.000000D+00  0.000000D+00  0.347880D+00
      5 -0.252472D+00  0.000000D+00  0.151264D+00  0.000000D+00  0.799377D+00
      6  0.000000D+00  0.000000D+00  0.000000D+00  0.000000D+00  0.000000D+00
      7 -0.806013D-01  0.000000D+00 -0.601930D-01  0.000000D+00  0.397612D-01
      8  0.000000D+00  0.000000D+00  0.000000D+00  0.000000D+00  0.000000D+00
      9  0.000000D+00  0.000000D+00  0.000000D+00  0.000000D+00  0.000000D+00
     10  0.000000D+00  0.000000D+00  0.000000D+00  0.000000D+00  0.000000D+00
     11  0.000000D+00  0.000000D+00  0.000000D+00  0.000000D+00  0.000000D+00
     12  0.000000D+00  0.000000D+00  0.000000D+00  0.000000D+00  0.000000D+00
     13  0.000000D+00  0.000000D+00  0.000000D+00  0.000000D+00  0.000000D+00
     14 -0.439853D-01  0.000000D+00 -0.513936D-02  0.000000D+00  0.157173D-01
     15 -0.179686D+00  0.000000D+00  0.378152D+00  0.000000D+00  0.575455D+00
     16  0.000000D+00  0.000000D+00  0.000000D+00  0.000000D+00  0.000000D+00
     17 -0.937662D+00  0.000000D+00  0.716505D+00  0.000000D+00  0.195774D+01
     18  0.000000D+00  0.000000D+00  0.000000D+00  0.000000D+00  0.000000D+00
     19 -0.112422D+01  0.000000D+00  0.544543D+00  0.000000D+00  0.205337D+01
     20  0.573711D-03  0.000000D+00 -0.288190D-03  0.000000D+00 -0.271314D-03
     21 -0.577857D-03  0.000000D+00  0.290273D-03  0.000000D+00  0.273274D-03
     22  0.286521D-01  0.000000D+00  0.336987D-01  0.000000D+00 -0.457275D-02
     23  0.193528D-01  0.000000D+00  0.293342D-01  0.000000D+00 -0.186169D-02
     24  0.000000D+00  0.000000D+00  0.000000D+00  0.000000D+00  0.000000D+00
     25  0.000000D+00  0.000000D+00  0.000000D+00  0.000000D+00  0.000000D+00
     26 -0.166578D-01  0.000000D+00  0.230465D-01  0.000000D+00  0.106177D-01
     27  0.000000D+00  0.000000D+00 -0.296983D-02  0.000000D+00 -0.554371D-03
     28  0.269125D+00  0.000000D+00 -0.343334D+00  0.000000D+00 -0.101265D+01
     29  0.000000D+00  0.000000D+00  0.000000D+00  0.000000D+00  0.000000D+00
     30 -0.133572D-01  0.000000D+00 -0.119362D+00  0.000000D+00 -0.509585D+00
     31 -0.931082D-04  0.000000D+00  0.467707D-04  0.000000D+00  0.440318D-04
     32 -0.159112D-03  0.000000D+00  0.799262D-04  0.000000D+00  0.752456D-04
     33 -0.104976D+00  0.000000D+00  0.384223D-01  0.000000D+00  0.469730D-01
     34 -0.562734D-01  0.000000D+00  0.410574D-01  0.000000D+00  0.289997D-01
     35  0.108796D-01  0.000000D+00  0.142030D-01  0.000000D+00 -0.147367D-02
     36  0.000000D+00  0.000000D+00  0.000000D+00  0.000000D+00  0.000000D+00
                6             7             8             9            10 
      6  0.344930D+00
      7  0.000000D+00  0.143832D+00
      8  0.000000D+00  0.000000D+00  0.356796D+00
      9  0.000000D+00  0.000000D+00  0.000000D+00  0.355818D+00
     10  0.000000D+00  0.000000D+00  0.000000D+00  0.000000D+00  0.353662D+00
     11  0.000000D+00  0.000000D+00  0.000000D+00  0.000000D+00  0.000000D+00
     12  0.000000D+00  0.000000D+00  0.000000D+00  0.000000D+00  0.000000D+00
     13  0.000000D+00  0.000000D+00  0.000000D+00  0.000000D+00  0.000000D+00
     14  0.000000D+00  0.225564D-01  0.000000D+00  0.000000D+00  0.000000D+00
     15  0.000000D+00 -0.166170D+00  0.000000D+00  0.000000D+00  0.000000D+00
     16  0.000000D+00  0.000000D+00  0.000000D+00  0.000000D+00  0.000000D+00
     17  0.000000D+00  0.396754D-01  0.000000D+00  0.000000D+00  0.000000D+00
     18  0.000000D+00  0.000000D+00  0.000000D+00  0.000000D+00  0.000000D+00
     19  0.000000D+00  0.269146D+00  0.000000D+00  0.000000D+00  0.000000D+00
     20  0.000000D+00  0.000000D+00  0.000000D+00  0.000000D+00  0.000000D+00
     21  0.000000D+00  0.000000D+00  0.000000D+00  0.000000D+00  0.000000D+00
     22  0.000000D+00 -0.398309D-01  0.000000D+00  0.000000D+00  0.000000D+00
     23  0.000000D+00 -0.323472D-01  0.000000D+00  0.000000D+00  0.000000D+00
     24  0.000000D+00  0.000000D+00  0.000000D+00  0.000000D+00  0.000000D+00
     25  0.000000D+00  0.000000D+00  0.000000D+00  0.000000D+00  0.000000D+00
     26  0.000000D+00 -0.121575D-01  0.000000D+00  0.000000D+00  0.000000D+00
     27  0.000000D+00  0.245971D-02  0.000000D+00  0.000000D+00  0.000000D+00
[...]
 Alpha virt. eigenvalues --    0.05545   0.09945   0.12722   0.14604   0.15972
 Alpha virt. eigenvalues --    0.19051   0.20555   0.21316   0.22457   0.23290
 Alpha virt. eigenvalues --    0.29122   0.33252   0.35322   0.43589   0.45784
 Alpha virt. eigenvalues --    0.47477   0.50358   0.53549   0.55703   0.56661
 Alpha virt. eigenvalues --    0.58386   0.61389   0.63250   0.63922   0.65028
 Alpha virt. eigenvalues --    0.68084   0.69888   0.71540   0.72706   0.73437
 Alpha virt. eigenvalues --    0.74899   0.76313   0.77833   0.79927   0.81610
 Alpha virt. eigenvalues --    0.83253   0.86332   0.88004   0.88857   0.97194
 Alpha virt. eigenvalues --    0.99953   1.02447   1.07948   1.10922   1.13185
 Alpha virt. eigenvalues --    1.15299   1.21433   1.29923   1.33645   1.37973
 Alpha virt. eigenvalues --    1.39329   1.41714   1.47603   1.52402   1.57516
 Alpha virt. eigenvalues --    1.60495   1.62366   1.65904   1.69053   1.73028
 Alpha virt. eigenvalues --    1.76771   1.78600   1.80057   1.80787   1.85474
 Alpha virt. eigenvalues --    1.88661   1.91689   1.95476   1.97122   1.98180
 Alpha virt. eigenvalues --    2.01531   2.02888   2.04560   2.06827   2.15033
 Alpha virt. eigenvalues --    2.17913   2.21811   2.22832   2.26320   2.28580
 Alpha virt. eigenvalues --    2.36123   2.38531   2.41545   2.48840   2.52327
 Alpha virt. eigenvalues --    2.53325   2.53730   2.59675   2.60647   2.65578
 Alpha virt. eigenvalues --    2.78075   2.80977   2.81921   2.91659   2.92434
 Alpha virt. eigenvalues --    2.94607   2.99208   3.05140   3.08497   3.14442
 Alpha virt. eigenvalues --    3.26219   3.29237   3.42286   3.45295   3.66613
 Alpha virt. eigenvalues --    3.95012
  Beta  occ. eigenvalues --  -19.34021 -19.32358 -10.38513 -10.31305 -10.30887
  Beta  occ. eigenvalues --  -10.30022 -10.29984  -1.25486  -1.02741  -0.90667
  Beta  occ. eigenvalues --   -0.80015  -0.76323  -0.67930  -0.64888  -0.61643
  Beta  occ. eigenvalues --   -0.59083  -0.55622  -0.53965  -0.50188  -0.48074
  Beta  occ. eigenvalues --   -0.47065  -0.44688  -0.43267  -0.39783  -0.36549
  Beta  occ. eigenvalues --   -0.30384
  Beta virt. eigenvalues --    0.00076   0.05773   0.10715   0.13516   0.15933
  Beta virt. eigenvalues --    0.16133   0.19188   0.20772   0.21871   0.22712
  Beta virt. eigenvalues --    0.23617   0.29429   0.33752   0.36136   0.44225
  Beta virt. eigenvalues --    0.46148   0.47755   0.50804   0.54192   0.56326
  Beta virt. eigenvalues --    0.57976   0.58734   0.61758   0.63958   0.65030
  Beta virt. eigenvalues --    0.66639   0.68434   0.70725   0.71969   0.73142
  Beta virt. eigenvalues --    0.74097   0.75244   0.76500   0.78013   0.80374
  Beta virt. eigenvalues --    0.82125   0.83650   0.86833   0.88434   0.89310
  Beta virt. eigenvalues --    0.97394   1.00093   1.02548   1.08132   1.11019
  Beta virt. eigenvalues --    1.13302   1.15418   1.21825   1.30417   1.34285
  Beta virt. eigenvalues --    1.38786   1.39773   1.42015   1.47781   1.52635
  Beta virt. eigenvalues --    1.57657   1.61297   1.62712   1.66578   1.69575
  Beta virt. eigenvalues --    1.73280   1.77119   1.79092   1.80709   1.81463
  Beta virt. eigenvalues --    1.86173   1.89450   1.92385   1.95551   1.98061
  Beta virt. eigenvalues --    1.98653   2.02435   2.04011   2.05097   2.07626
  Beta virt. eigenvalues --    2.15662   2.19338   2.22415   2.23099   2.26379
  Beta virt. eigenvalues --    2.29248   2.36340   2.39724   2.42711   2.49356
  Beta virt. eigenvalues --    2.52646   2.53963   2.54694   2.61078   2.61393
  Beta virt. eigenvalues --    2.65871   2.78756   2.81634   2.82171   2.92232
  Beta virt. eigenvalues --    2.92764   2.95078   2.99402   3.05285   3.08949
  Beta virt. eigenvalues --    3.14860   3.26234   3.29376   3.42281   3.45703
  Beta virt. eigenvalues --    3.66628   3.95039
          Condensed to atoms (all electrons):
               1          2          3          4          5          6
     1  C    5.174606   0.473810   0.403314  -0.025746  -0.056788  -0.112396
     2  C    0.473810   4.715803  -0.026633   0.517587   0.426591  -0.039468
     3  H    0.403314  -0.026633   0.606204   0.007598  -0.006995   0.005069
     4  C   -0.025746   0.517587   0.007598   5.017321  -0.051201   0.325013
     5  H   -0.056788   0.426591  -0.006995  -0.051201   0.649621   0.010282
     6  C   -0.112396  -0.039468   0.005069   0.325013   0.010282   4.969796
     7  H    0.006782  -0.035145  -0.000094   0.406186  -0.007841  -0.044480
     8  C    0.264598  -0.025180  -0.044745  -0.073479   0.009612   0.334815
     9  H    0.003781  -0.004117  -0.000176  -0.012112  -0.000352   0.355986
    10  H    0.003167   0.004337  -0.000095  -0.022477  -0.000297   0.380290
    11  H   -0.011736  -0.004516   0.000469   0.004599  -0.000375  -0.033981
    12  O   -0.034389   0.001341   0.001909   0.001562  -0.000080  -0.027590
    13  O    0.007551  -0.000152  -0.000128   0.000118   0.000002  -0.000433
    14  H   -0.000807   0.000094   0.000055  -0.000092  -0.000000   0.003584
               7          8          9         10         11         12
     1  C    0.006782   0.264598   0.003781   0.003167  -0.011736  -0.034389
     2  C   -0.035145  -0.025180  -0.004117   0.004337  -0.004516   0.001341
     3  H   -0.000094  -0.044745  -0.000176  -0.000095   0.000469   0.001909
     4  C    0.406186  -0.073479  -0.012112  -0.022477   0.004599   0.001562
     5  H   -0.007841   0.009612  -0.000352  -0.000297  -0.000375  -0.000080
     6  C   -0.044480   0.334815   0.355986   0.380290  -0.033981  -0.027590
     7  H    0.633448   0.003995   0.000512  -0.003140  -0.000281  -0.000045
     8  C    0.003995   4.804760  -0.010690  -0.010874   0.373100   0.274747
     9  H    0.000512  -0.010690   0.625928  -0.028477   0.002543   0.002573
    10  H   -0.003140  -0.010874  -0.028477   0.620137  -0.000239   0.000693
    11  H   -0.000281   0.373100   0.002543  -0.000239   0.611445  -0.028078
    12  O   -0.000045   0.274747   0.002573   0.000693  -0.028078   7.919186
    13  O    0.000000  -0.040418  -0.000033   0.000084   0.008217   0.107919
    14  H    0.000004   0.002485  -0.000149  -0.000221  -0.001585  -0.023921
              13         14
     1  C    0.007551  -0.000807
     2  C   -0.000152   0.000094
     3  H   -0.000128   0.000055
     4  C    0.000118  -0.000092
     5  H    0.000002  -0.000000
     6  C   -0.000433   0.003584
     7  H    0.000000   0.000004
     8  C   -0.040418   0.002485
     9  H   -0.000033  -0.000149
    10  H    0.000084  -0.000221
    11  H    0.008217  -0.001585
    12  O    0.107919  -0.023921
    13  O    7.753975   0.310622
    14  H    0.310622   0.507079
          Atomic-Atomic Spin Densities.
               1          2          3          4          5          6
     1  C    0.763708  -0.030008   0.006165  -0.036800  -0.001418  -0.013586
     2  C   -0.030008  -0.254189  -0.000609   0.009323   0.002545   0.000356
     3  H    0.006165  -0.000609  -0.035821  -0.000394   0.000093   0.000067
     4  C   -0.036800   0.009323  -0.000394   0.708640  -0.001676  -0.057950
     5  H   -0.001418   0.002545   0.000093  -0.001676   0.009634   0.000044
     6  C   -0.013586   0.000356   0.000067  -0.057950   0.000044   0.141031
     7  H   -0.000403  -0.002770   0.000016   0.007152   0.000239  -0.000389
     8  C   -0.032727   0.000741   0.000580  -0.004388   0.000064   0.023429
     9  H    0.006080   0.000812  -0.000061  -0.017819   0.000003  -0.006758
    10  H   -0.000002  -0.000157   0.000012  -0.006888  -0.000000   0.009257
    11  H   -0.014928   0.000937  -0.000383   0.005243   0.000001  -0.014495
    12  O   -0.005463  -0.000030   0.000274  -0.000098   0.000001   0.001347
    13  O    0.000661  -0.000006  -0.000022   0.000011  -0.000000  -0.000551
    14  H   -0.000143   0.000007  -0.000000  -0.000010   0.000000   0.000414
               7          8          9         10         11         12
     1  C   -0.000403  -0.032727   0.006080  -0.000002  -0.014928  -0.005463
     2  C   -0.002770   0.000741   0.000812  -0.000157   0.000937  -0.000030
     3  H    0.000016   0.000580  -0.000061   0.000012  -0.000383   0.000274
     4  C    0.007152  -0.004388  -0.017819  -0.006888   0.005243  -0.000098
     5  H    0.000239   0.000064   0.000003  -0.000000   0.000001   0.000001
     6  C   -0.000389   0.023429  -0.006758   0.009257  -0.014495   0.001347
     7  H   -0.027574   0.000019  -0.000944   0.000266  -0.000084   0.000003
     8  C    0.000019  -0.077987  -0.006133   0.001523   0.002344   0.010092
     9  H   -0.000944  -0.006133   0.060031  -0.005902   0.001688  -0.000040
    10  H    0.000266   0.001523  -0.005902   0.006666  -0.000980   0.000036
    11  H   -0.000084   0.002344   0.001688  -0.000980   0.060474  -0.006709
    12  O    0.000003   0.010092  -0.000040   0.000036  -0.006709   0.002392
    13  O   -0.000000   0.000007   0.000185  -0.000018   0.001512  -0.002672
    14  H    0.000000  -0.000199  -0.000258   0.000033  -0.000379   0.000629
              13         14
     1  C    0.000661  -0.000143
     2  C   -0.000006   0.000007
     3  H   -0.000022  -0.000000
     4  C    0.000011  -0.000010
     5  H   -0.000000   0.000000
     6  C   -0.000551   0.000414
     7  H   -0.000000   0.000000
     8  C    0.000007  -0.000199
     9  H    0.000185  -0.000258
    10  H   -0.000018   0.000033
    11  H    0.001512  -0.000379
    12  O   -0.002672   0.000629
    13  O    0.005540  -0.000240
    14  H   -0.000240   0.000011
 Mulliken charges and spin densities:
               1          2
     1  C   -0.095748   0.641137
     2  C   -0.004351  -0.273047
     3  H    0.054248  -0.030084
     4  C   -0.094876   0.604345
     5  H    0.027821   0.009531
     6  C   -0.126487   0.082215
     7  H    0.040099  -0.024469
     8  C    0.137275  -0.082635
     9  H    0.064783   0.030884
    10  H    0.057115   0.003845
    11  H    0.080418   0.034242
    12  O   -0.195827  -0.000238
    13  O   -0.147323   0.004408
    14  H    0.202854  -0.000134
 Sum of Mulliken charges =  -0.00000   1.00000
 Mulliken charges and spin densities with hydrogens summed into heavy atoms:
               1          2
     1  C   -0.041500   0.611052
     2  C    0.023470  -0.263517
     4  C   -0.054777   0.579877
     6  C   -0.004589   0.116944
     8  C    0.217693  -0.048393
    12  O   -0.195827  -0.000238
    13  O    0.055530   0.004274
 Electronic spatial extent (au):  <R**2>=            839.8698
 Charge=              0.0000 electrons
 Dipole moment (field-independent basis, Debye):
    X=              0.6362    Y=              1.2757    Z=              0.0224  Tot=              1.4257
 Quadrupole moment (field-independent basis, Debye-Ang):
   XX=            -41.6750   YY=            -37.4482   ZZ=            -42.6524
   XY=             -4.4762   XZ=              1.0154   YZ=             -0.9605
 Traceless Quadrupole moment (field-independent basis, Debye-Ang):
   XX=             -1.0831   YY=              3.1436   ZZ=             -2.0606
   XY=             -4.4762   XZ=              1.0154   YZ=             -0.9605
 Octapole moment (field-independent basis, Debye-Ang**2):
  XXX=             -6.8561  YYY=             -0.1050  ZZZ=             -0.2294  XYY=            -10.4075
  XXY=             10.3569  XXZ=             -5.2050  XZZ=            -10.4712  YZZ=              2.4071
  YYZ=             -1.6423  XYZ=              4.1630
 Hexadecapole moment (field-independent basis, Debye-Ang**3):
 XXXX=           -708.4918 YYYY=           -258.2616 ZZZZ=            -65.9544 XXXY=            -35.6038
 XXXZ=             15.7511 YYYX=            -14.5955 YYYZ=              4.7175 ZZZX=              1.1760
 ZZZY=             -0.3796 XXYY=           -144.1084 XXZZ=           -138.5900 YYZZ=            -57.6333
 XXYZ=             -4.7385 YYXZ=              3.0452 ZZXY=             -1.1482
 N-N= 2.849528439866D+02 E-N=-1.374010868861D+03  KE= 3.412741688118D+02
                          Isotropic Fermi Contact Couplings
        Atom                 a.u.       MegaHertz       Gauss      10(-4) cm-1
     1  C(13)              0.10996     123.62058      44.11090      41.23539
     2  C(13)             -0.06529     -73.39788     -26.19019     -24.48290
     3  H(1)              -0.00933     -41.68599     -14.87460     -13.90495
     4  C(13)              0.10013     112.56378      40.16555      37.54723
     5  H(1)               0.00293      13.11846       4.68099       4.37585
     6  C(13)              0.01400      15.74427       5.61795       5.25172
     7  H(1)              -0.00665     -29.73678     -10.61082      -9.91912
     8  C(13)             -0.04936     -55.49148     -19.80074     -18.50997
     9  H(1)               0.01427      63.80186      22.76609      21.28201
    10  H(1)               0.00304      13.58750       4.84836       4.53230
    11  H(1)               0.01668      74.57218      26.60921      24.87460
    12  O(17)              0.04183     -25.35970      -9.04897      -8.45909
    13  O(17)              0.00067      -0.40738      -0.14536      -0.13589
    14  H(1)              -0.00009      -0.38710      -0.13813      -0.12912
 --------------------------------------------------------
       Center         ----  Spin Dipole Couplings  ----
                      3XX-RR        3YY-RR        3ZZ-RR
 --------------------------------------------------------
     1   Atom       -0.313544     -0.284147      0.597691
     2   Atom        0.096201      0.109549     -0.205750
     3   Atom       -0.039682      0.041161     -0.001479
     4   Atom       -0.302775     -0.320425      0.623200
     5   Atom        0.001101      0.007258     -0.008358
     6   Atom        0.027641      0.012107     -0.039748
     7   Atom        0.030537     -0.028338     -0.002199
     8   Atom        0.026721     -0.027830      0.001109
     9   Atom       -0.000631     -0.003814      0.004445
    10   Atom       -0.004959      0.011560     -0.006601
    11   Atom        0.003667     -0.001619     -0.002049
    12   Atom        0.013508     -0.054137      0.040629
    13   Atom        0.004214     -0.001728     -0.002485
    14   Atom        0.002414     -0.000683     -0.001731
 --------------------------------------------------------
                        XY            XZ            YZ
 --------------------------------------------------------
     1   Atom       -0.026526      0.153654     -0.184214
     2   Atom        0.013869     -0.017509      0.019605
     3   Atom        0.016878      0.010846      0.007992
     4   Atom        0.004195     -0.083711      0.010954
     5   Atom        0.007346     -0.001289      0.000342
     6   Atom        0.080471     -0.056951     -0.047115
     7   Atom        0.032382      0.005180      0.005384
     8   Atom       -0.013294      0.000455      0.019336
     9   Atom       -0.002854      0.011312     -0.005917
    10   Atom       -0.001076     -0.002865      0.010320
    11   Atom       -0.002209     -0.003640      0.004369
    12   Atom       -0.021890      0.019746      0.007133
    13   Atom       -0.009882     -0.009193      0.007044
    14   Atom       -0.001149      0.000177     -0.000749
 --------------------------------------------------------


 ---------------------------------------------------------------------------------
              Anisotropic Spin Dipole Couplings in Principal Axis System
 ---------------------------------------------------------------------------------

       Atom             a.u.   MegaHertz   Gauss  10(-4) cm-1        Axes

              Baa    -0.3394   -45.550   -16.254   -15.194  0.9632 -0.1856 -0.1944
     1 C(13)  Bbb    -0.3201   -42.961   -15.329   -14.330  0.2173  0.9634  0.1570
              Bcc     0.6596    88.511    31.583    29.524  0.1582 -0.1934  0.9683
 
              Baa    -0.2081   -27.921    -9.963    -9.313  0.0602 -0.0641  0.9961
     2 C(13)  Bbb     0.0896    12.027     4.292     4.012  0.8549 -0.5119 -0.0847
              Bcc     0.1184    15.894     5.671     5.302  0.5153  0.8566  0.0240
 
              Baa    -0.0450   -24.010    -8.568    -8.009  0.9632 -0.1693 -0.2089
     3 H(1)   Bbb    -0.0016    -0.878    -0.313    -0.293  0.1646 -0.2433  0.9559
              Bcc     0.0466    24.889     8.881     8.302  0.2127  0.9551  0.2065
 
              Baa    -0.3227   -43.301   -15.451   -14.444 -0.3814  0.9233 -0.0444
     4 C(13)  Bbb    -0.3081   -41.349   -14.754   -13.793  0.9201  0.3838  0.0782
              Bcc     0.6308    84.650    30.205    28.236 -0.0893  0.0111  0.9959
 
              Baa    -0.0087    -4.638    -1.655    -1.547  0.2185 -0.1214  0.9683
     5 H(1)   Bbb    -0.0035    -1.847    -0.659    -0.616  0.8026 -0.5421 -0.2491
              Bcc     0.0122     6.484     2.314     2.163  0.5551  0.8315 -0.0210
 
              Baa    -0.0723    -9.700    -3.461    -3.236  0.4595  0.0566  0.8863
     6 C(13)  Bbb    -0.0601    -8.067    -2.878    -2.691 -0.5654  0.7883  0.2427
              Bcc     0.1324    17.767     6.340     5.926  0.6850  0.6127 -0.3943
 
              Baa    -0.0429   -22.869    -8.160    -7.628 -0.3985  0.9145 -0.0703
     7 H(1)   Bbb    -0.0030    -1.599    -0.571    -0.533 -0.1589  0.0067  0.9873
              Bcc     0.0459    24.468     8.731     8.162  0.9033  0.4046  0.1427
 
              Baa    -0.0397    -5.332    -1.902    -1.778  0.1806  0.8882 -0.4225
     8 C(13)  Bbb     0.0093     1.247     0.445     0.416  0.2599  0.3712  0.8914
              Bcc     0.0304     4.084     1.457     1.362  0.9486 -0.2708 -0.1638
 
              Baa    -0.0102    -5.418    -1.933    -1.807  0.6900 -0.3028 -0.6574
     9 H(1)   Bbb    -0.0055    -2.915    -1.040    -0.972  0.4344  0.8998  0.0414
              Bcc     0.0156     8.334     2.974     2.780  0.5789 -0.3141  0.7524
 
              Baa    -0.0120    -6.378    -2.276    -2.128  0.3024 -0.3714  0.8778
    10 H(1)   Bbb    -0.0045    -2.396    -0.855    -0.799  0.9478  0.2150 -0.2355
              Bcc     0.0164     8.775     3.131     2.927 -0.1012  0.9032  0.4170
 
              Baa    -0.0064    -3.394    -1.211    -1.132  0.1354 -0.6365  0.7593
    11 H(1)   Bbb    -0.0009    -0.503    -0.180    -0.168  0.6408  0.6408  0.4229
              Bcc     0.0073     3.897     1.391     1.300  0.7557 -0.4293 -0.4946
 
              Baa    -0.0622     4.498     1.605     1.500  0.3055  0.9441 -0.1242
    12 O(17)  Bbb     0.0110    -0.794    -0.283    -0.265  0.8209 -0.3272 -0.4680
              Bcc     0.0512    -3.703    -1.321    -1.235  0.4824 -0.0410  0.8750
 
              Baa    -0.0092     0.665     0.237     0.222  0.2271  0.8105 -0.5400
    13 O(17)  Bbb    -0.0089     0.643     0.230     0.215  0.6797  0.2652  0.6839
              Bcc     0.0181    -1.308    -0.467    -0.436  0.6974 -0.5224 -0.4906
 
              Baa    -0.0022    -1.151    -0.411    -0.384  0.0947  0.5089  0.8556
    14 H(1)   Bbb    -0.0007    -0.359    -0.128    -0.120  0.3256  0.7964 -0.5097
              Bcc     0.0028     1.510     0.539     0.504  0.9407 -0.3269  0.0903
 

 ---------------------------------------------------------------------------------

 No NMR shielding tensors so no spin-rotation constants.
 Leave Link  601 at Tue May 20 10:59:26 2025, MaxMem=  3758096384 cpu:               0.8 elap:               0.2
 (Enter /gpfs/fs1/soft/bebop/software/custom-built/gaussian/16-c.02/g16/l9999.exe)


 The theorems and results in mathematical physics are
 not theorems and results about Nature, but about our
 description of it.
                   --Gerard 't Hooft
 Error termination request processed by link 9999.
 Error termination via Lnk1e in /gpfs/fs1/soft/bebop/software/custom-built/gaussian/16-c.02/g16/l9999.exe at Tue May 20 10:59:26 2025.
 Job cpu time:       0 days  1 hours  4 minutes 41.9 seconds.
 Elapsed time:       0 days  0 hours 12 minutes 42.5 seconds.
 File lengths (MBytes):  RWF=     15 Int=      0 D2E=      0 Chk=      3 Scr=      1
