 Entering Gaussian System, Link 0=g16
 Input=run.inp
 Output=run.out
 Initial command:
 /gpfs/fs1/soft/bebop/software/custom-built/gaussian/16-c.02/g16/l1.exe "/scratch/Gau-817025.inp" -scrdir="/scratch/"
 Default CPUs for threads: 0-35
 Default is to use a total of  36 processors:
                               36 via shared-memory
                                1 via Linda
 Entering Link 1 = /gpfs/fs1/soft/bebop/software/custom-built/gaussian/16-c.02/g16/l1.exe PID=    817026.
  
 Copyright (c) 1988-2019, Gaussian, Inc.  All Rights Reserved.
  
 This is part of the Gaussian(R) 16 program.  It is based on
 the Gaussian(R) 09 system (copyright 2009, Gaussian, Inc.),
 the Gaussian(R) 03 system (copyright 2003, Gaussian, Inc.),
 the Gaussian(R) 98 system (copyright 1998, Gaussian, Inc.),
 the Gaussian(R) 94 system (copyright 1995, Gaussian, Inc.),
 the Gaussian 92(TM) system (copyright 1992, Gaussian, Inc.),
 the Gaussian 90(TM) system (copyright 1990, Gaussian, Inc.),
 the Gaussian 88(TM) system (copyright 1988, Gaussian, Inc.),
 the Gaussian 86(TM) system (copyright 1986, Carnegie Mellon
 University), and the Gaussian 82(TM) system (copyright 1983,
 Carnegie Mellon University). Gaussian is a federally registered
 trademark of Gaussian, Inc.
  
 This software contains proprietary and confidential information,
 including trade secrets, belonging to Gaussian, Inc.
  
 This software is provided under written license and may be
 used, copied, transmitted, or stored only in accord with that
 written license.
  
 The following legend is applicable only to US Government
 contracts under FAR:
  
                    RESTRICTED RIGHTS LEGEND
  
 Use, reproduction and disclosure by the US Government is
 subject to restrictions as set forth in subparagraphs (a)
 and (c) of the Commercial Computer Software - Restricted
 Rights clause in FAR 52.227-19.
  
 Gaussian, Inc.
 340 Quinnipiac St., Bldg. 40, Wallingford CT 06492
  
  
 ---------------------------------------------------------------
 Warning -- This program may not be used in any manner that
 competes with the business of Gaussian, Inc. or will provide
 assistance to any competitor of Gaussian, Inc.  The licensee
 of this program is prohibited from giving any competitor of
 Gaussian, Inc. access to this program.  By using this program,
 the user acknowledges that Gaussian, Inc. is engaged in the
 business of creating and licensing software in the field of
 computational chemistry and represents and warrants to the
 licensee that it is not a competitor of Gaussian, Inc. and that
 it will not use this program in any manner prohibited above.
 ---------------------------------------------------------------
  

 Cite this work as:
 Gaussian 16, Revision C.01,
 M. J. Frisch, G. W. Trucks, H. B. Schlegel, G. E. Scuseria, 
 M. A. Robb, J. R. Cheeseman, G. Scalmani, V. Barone, 
 G. A. Petersson, H. Nakatsuji, X. Li, M. Caricato, A. V. Marenich, 
 J. Bloino, B. G. Janesko, R. Gomperts, B. Mennucci, H. P. Hratchian, 
 J. V. Ortiz, A. F. Izmaylov, J. L. Sonnenberg, D. Williams-Young, 
 F. Ding, F. Lipparini, F. Egidi, J. Goings, B. Peng, A. Petrone, 
 T. Henderson, D. Ranasinghe, V. G. Zakrzewski, J. Gao, N. Rega, 
 G. Zheng, W. Liang, M. Hada, M. Ehara, K. Toyota, R. Fukuda, 
 J. Hasegawa, M. Ishida, T. Nakajima, Y. Honda, O. Kitao, H. Nakai, 
 T. Vreven, K. Throssell, J. A. Montgomery, Jr., J. E. Peralta, 
 F. Ogliaro, M. J. Bearpark, J. J. Heyd, E. N. Brothers, K. N. Kudin, 
 V. N. Staroverov, T. A. Keith, R. Kobayashi, J. Normand, 
 K. Raghavachari, A. P. Rendell, J. C. Burant, S. S. Iyengar, 
 J. Tomasi, M. Cossi, J. M. Millam, M. Klene, C. Adamo, R. Cammi, 
 J. W. Ochterski, R. L. Martin, K. Morokuma, O. Farkas, 
 J. B. Foresman, and D. J. Fox, Gaussian, Inc., Wallingford CT, 2019.
 
 ******************************************
 Gaussian 16:  ES64L-G16RevC.01  3-Jul-2019
                26-May-2025 
 ******************************************
 %mem=28GB
 %NProcShared=6
 Will use up to    6 processors via shared memory.
 ----------------------------------------------------------------------
 #P wb97xd/def2svp # SCF=(xqc) # POpt=(CALCFC,TS,NOEIGEN,MAXCYCLES=60) 
 # int=ultrafine
 ----------------------------------------------------------------------
 1/5=1,6=60,10=4,11=1,26=4,38=1/1,3;
 2/12=2,17=6,18=5,29=3,40=1/2;
 3/5=43,7=101,11=2,25=1,30=1,71=2,74=-58,75=-5,140=1/1,2,3;
 4//1;
 5/5=2,8=3,13=1,38=5/2,8;
 8/6=4,10=90,11=11/1;
 11/6=1,8=1,9=11,15=111,16=1/1,2,10;
 10/6=1,13=1/2;
 6/7=2,8=2,9=2,10=2,28=1/1;
 7/10=1,25=1/1,2,3,16;
 1/5=1,6=60,10=4,11=1,26=4/3(2);
 2/29=3/2;
 99//99;
 2/29=3/2;
 3/5=43,7=101,11=2,25=1,30=1,71=1,74=-58,75=-5/1,2,3;
 4/5=5,16=3,69=1/1;
 5/5=2,8=3,13=1,38=5/2,8;
 7//1,2,3,16;
 1/5=1,6=60,11=1,26=4/3(-5);
 2/29=3/2;
 6/7=2,8=2,9=2,10=2,19=2,28=1/1;
 99/9=1/99;
 Leave Link    1 at Mon May 26 12:52:26 2025, MaxMem=  3758096384 cpu:               1.1 elap:               0.1
 (Enter /gpfs/fs1/soft/bebop/software/custom-built/gaussian/16-c.02/g16/l101.exe)
 --------
 comment:
 --------
 Symbolic Z-matrix:
 Charge =  0 Multiplicity = 2
 C
 C                    1    R1
 C                    1    R2       2    A2
 H                    1    R3       2    A3       3    D3       0
 C                    2    R4       1    A4       3    D4       0
 H                    2    R5       1    A5       5    D5       0
 H                    2    R6       1    A6       5    D6       0
 O                    5    R7       2    A7       1    D7       0
 H                    5    R8       2    A8       8    D8       0
 O                    8    R9       5    A9       2    D9       0
 C                    3    R10      1    A10      2    D10      0
 H                    3    R11      1    A11      11   D11      0
 H                    11   R12      3    A12      1    D12      0
 H                    10   R13      8    A13      5    D13      0
       Variables:
  R1                    1.5195                   
  R2                    1.4561                   
  R3                    1.0909                   
  R5                    1.0985                   
  R6                    1.1011                   
  R8                    1.0949                   
  R10                   1.3611                   
  R11                   1.0903                   
  R12                   1.0889                   
  R13                   0.9666                   
  A2                  104.495                    
  A3                  126.0854                   
  A5                  114.3806                   
  A6                  113.6774                   
  A8                  121.7311                   
  A9                  100.6533                   
  A10                 106.0703                   
  A11                 125.9704                   
  A12                 128.8677                   
  A13                  94.0111                   
  D3                  159.2471                   
  D5                  113.4797                   
  D6                  242.3333                   
  D8                  121.2253                   
  D9                  160.0843                   
  D10                 327.3092                   
  D11                 185.9274                   
  D12                 182.6557                   
  D13                 155.468                    
  R4                    1.524                    
  A4                   88.3681                   
  D4                   53.9799                   
  R7                    1.4302                   
  A7                   94.8515                   
  D7                   48.4988                   
  R9                    1.7136                   
 
 ITRead=  0  0  0  0  0  0  0  0  0  0  0  0  0  0
 MicOpt= -1 -1 -1 -1 -1 -1 -1 -1 -1 -1 -1 -1 -1 -1
 NAtoms=     14 NQM=       14 NQMF=       0 NMMI=      0 NMMIF=      0
                NMic=       0 NMicF=      0.
                    Isotopes and Nuclear Properties:
 (Nuclear quadrupole moments (NQMom) in fm**2, nuclear magnetic moments (NMagM)
  in nuclear magnetons)

  Atom         1           2           3           4           5           6           7           8           9          10
 IAtWgt=          12          12          12           1          12           1           1          16           1          16
 AtmWgt=  12.0000000  12.0000000  12.0000000   1.0078250  12.0000000   1.0078250   1.0078250  15.9949146   1.0078250  15.9949146
 NucSpn=           0           0           0           1           0           1           1           0           1           0
 AtZEff=  -0.0000000  -0.0000000  -0.0000000  -0.0000000  -0.0000000  -0.0000000  -0.0000000  -0.0000000  -0.0000000  -0.0000000
 NQMom=    0.0000000   0.0000000   0.0000000   0.0000000   0.0000000   0.0000000   0.0000000   0.0000000   0.0000000   0.0000000
 NMagM=    0.0000000   0.0000000   0.0000000   2.7928460   0.0000000   2.7928460   2.7928460   0.0000000   2.7928460   0.0000000
 AtZNuc=   6.0000000   6.0000000   6.0000000   1.0000000   6.0000000   1.0000000   1.0000000   8.0000000   1.0000000   8.0000000

  Atom        11          12          13          14
 IAtWgt=          12           1           1           1
 AtmWgt=  12.0000000   1.0078250   1.0078250   1.0078250
 NucSpn=           0           1           1           1
 AtZEff=  -0.0000000  -0.0000000  -0.0000000  -0.0000000
 NQMom=    0.0000000   0.0000000   0.0000000   0.0000000
 NMagM=    0.0000000   2.7928460   2.7928460   2.7928460
 AtZNuc=   6.0000000   1.0000000   1.0000000   1.0000000
 Leave Link  101 at Mon May 26 12:52:26 2025, MaxMem=  3758096384 cpu:               0.6 elap:               0.1
 (Enter /gpfs/fs1/soft/bebop/software/custom-built/gaussian/16-c.02/g16/l103.exe)

 GradGradGradGradGradGradGradGradGradGradGradGradGradGradGradGradGradGrad
 Berny optimization.
 Initialization pass.
                       ----------------------------
                       !    Initial Parameters    !
                       ! (Angstroms and Degrees)  !
 ----------------------                            ----------------------
 !      Name          Value   Derivative information (Atomic Units)     !
 ------------------------------------------------------------------------
 !       R1          1.5195   calculate D2E/DX2 analytically            !
 !       R2          1.4561   calculate D2E/DX2 analytically            !
 !       R3          1.0909   calculate D2E/DX2 analytically            !
 !       R5          1.0985   calculate D2E/DX2 analytically            !
 !       R6          1.1011   calculate D2E/DX2 analytically            !
 !       R8          1.0949   calculate D2E/DX2 analytically            !
 !       R10         1.3611   calculate D2E/DX2 analytically            !
 !       R11         1.0903   calculate D2E/DX2 analytically            !
 !       R12         1.0889   calculate D2E/DX2 analytically            !
 !       R13         0.9666   calculate D2E/DX2 analytically            !
 !       A2        104.495    calculate D2E/DX2 analytically            !
 !       A3        126.0854   calculate D2E/DX2 analytically            !
 !       A5        114.3806   calculate D2E/DX2 analytically            !
 !       A6        113.6774   calculate D2E/DX2 analytically            !
 !       A8        121.7311   calculate D2E/DX2 analytically            !
 !       A9        100.6533   calculate D2E/DX2 analytically            !
 !       A10       106.0703   calculate D2E/DX2 analytically            !
 !       A11       125.9704   calculate D2E/DX2 analytically            !
 !       A12       128.8677   calculate D2E/DX2 analytically            !
 !       A13        94.0111   calculate D2E/DX2 analytically            !
 !       D3        159.2471   calculate D2E/DX2 analytically            !
 !       D5        113.4797   calculate D2E/DX2 analytically            !
 !       D6        242.3333   calculate D2E/DX2 analytically            !
 !       D8        121.2253   calculate D2E/DX2 analytically            !
 !       D9        160.0843   calculate D2E/DX2 analytically            !
 !       D10       327.3092   calculate D2E/DX2 analytically            !
 !       D11       185.9274   calculate D2E/DX2 analytically            !
 !       D12       182.6557   calculate D2E/DX2 analytically            !
 !       D13       155.468    calculate D2E/DX2 analytically            !
 !       R4          1.524    calculate D2E/DX2 analytically            !
 !       A4         88.3681   calculate D2E/DX2 analytically            !
 !       D4         53.9799   calculate D2E/DX2 analytically            !
 !       R7          1.4302   calculate D2E/DX2 analytically            !
 !       A7         94.8515   calculate D2E/DX2 analytically            !
 !       D7         48.4988   calculate D2E/DX2 analytically            !
 !       R9          1.7136   calculate D2E/DX2 analytically            !
 ------------------------------------------------------------------------
 Trust Radius=3.00D-01 FncErr=1.00D-07 GrdErr=1.00D-06 EigMax=2.50D+02 EigMin=1.00D-04
 Number of steps in this run=     60 maximum allowed number of steps=    100.
 Search for a saddle point of order  1.
 GradGradGradGradGradGradGradGradGradGradGradGradGradGradGradGradGradGrad

 Leave Link  103 at Mon May 26 12:52:26 2025, MaxMem=  3758096384 cpu:               0.1 elap:               0.0
 (Enter /gpfs/fs1/soft/bebop/software/custom-built/gaussian/16-c.02/g16/l202.exe)
 ---------------------------------------------------------------------------------------------------
                            Z-MATRIX (ANGSTROMS AND DEGREES)
   CD    Cent   Atom    N1       Length/X        N2       Alpha/Y        N3        Beta/Z          J
 ---------------------------------------------------------------------------------------------------
      1      1  C 
      2      2  C        1   1.519500(     1)
      3      3  C        1   1.456100(     2)      2  104.495(    14)
      4      4  H        1   1.090900(     3)      2  126.085(    15)      3  159.247(    26)      0
      5      5  C        2   1.524000(     4)      1   88.368(    16)      3   53.980(    27)      0
      6      6  H        2   1.098500(     5)      1  114.381(    17)      5  113.480(    28)      0
      7      7  H        2   1.101100(     6)      1  113.677(    18)      5  242.333(    29)      0
      8      8  O        5   1.430200(     7)      2   94.852(    19)      1   48.499(    30)      0
      9      9  H        5   1.094900(     8)      2  121.731(    20)      8  121.225(    31)      0
     10     10  O        8   1.713600(     9)      5  100.653(    21)      2  160.084(    32)      0
     11     11  C        3   1.361100(    10)      1  106.070(    22)      2  327.309(    33)      0
     12     12  H        3   1.090300(    11)      1  125.970(    23)     11  185.927(    34)      0
     13     13  H       11   1.088900(    12)      3  128.868(    24)      1  182.656(    35)      0
     14     14  H       10   0.966600(    13)      8   94.011(    25)      5  155.468(    36)      0
 ---------------------------------------------------------------------------------------------------
                         Z-Matrix orientation:                         
 ---------------------------------------------------------------------
 Center     Atomic      Atomic             Coordinates (Angstroms)
 Number     Number       Type             X           Y           Z
 ---------------------------------------------------------------------
      1          6           0        0.000000    0.000000    0.000000
      2          6           0        0.000000    0.000000    1.519500
      3          6           0        1.409752    0.000000   -0.364455
      4          1           0       -0.824399   -0.312385   -0.642530
      5          6           0        0.895854    1.232128    1.476099
      6          1           0       -0.976670    0.217245    1.972956
      7          1           0        0.447006   -0.903923    1.961687
      8          8           0        0.087899    1.935814    0.528731
      9          1           0        1.115336    1.816485    2.375632
     10          8           0        0.618693    3.543704    0.792119
     11          6           0        2.050043    0.706410    0.606938
     12          1           0        1.832572   -0.397352   -1.287541
     13          1           0        3.104698    0.967488    0.679350
     14          1           0        0.368293    3.843271   -0.092118
 ---------------------------------------------------------------------
                    Distance matrix (angstroms):
                    1          2          3          4          5
     1  C    0.000000
     2  C    1.519500   0.000000
     3  C    1.456100   2.353017   0.000000
     4  H    1.090900   2.334864   2.272958   0.000000
     5  C    2.121217   1.524000   2.273735   3.135822   0.000000
     6  H    2.212157   1.098500   3.347491   2.672913   2.187052
     7  H    2.205699   1.101100   2.674863   2.957758   2.236062
     8  O    2.008646   2.176402   2.508476   2.694167   1.430200
     9  H    3.191743   2.297076   3.300663   4.171806   1.094900
    10  O    3.683486   3.670109   3.810679   4.360063   2.426527
    11  C    2.251680   2.352543   1.361100   3.295684   1.537522
    12  H    2.274637   3.375751   1.090300   2.735463   3.342208
    13  H    3.322153   3.358725   2.213234   4.338577   2.363015
    14  H    3.861976   4.183740   3.991182   4.358319   3.091228
                    6          7          8          9         10
     6  H    0.000000
     7  H    1.812181   0.000000
     8  O    2.484466   3.201004   0.000000
     9  H    2.663871   2.831720   2.116816   0.000000
    10  O    3.873614   4.602038   1.713600   2.395298   0.000000
    11  C    3.356528   2.645420   2.316800   2.287842   3.183283
    12  H    4.347461   3.568458   3.433132   4.339855   4.618486
    13  H    4.346706   3.494266   3.171975   2.748769   3.581875
    14  H    4.384235   5.173023   2.025454   3.279592   0.966600
                   11         12         13         14
    11  C    0.000000
    12  H    2.203324   0.000000
    13  H    1.088900   2.711043   0.000000
    14  H    3.627238   4.642848   4.043910   0.000000
 Stoichiometry    C5H7O2(2)
 Framework group  C1[X(C5H7O2)]
 Deg. of freedom    36
 Full point group                 C1      NOp   1
 Largest Abelian subgroup         C1      NOp   1
 Largest concise Abelian subgroup C1      NOp   1
                         Standard orientation:                         
 ---------------------------------------------------------------------
 Center     Atomic      Atomic             Coordinates (Angstroms)
 Number     Number       Type             X           Y           Z
 ---------------------------------------------------------------------
      1          6           0        1.179249   -0.412262   -0.818344
      2          6           0        0.982462   -1.150723    0.494985
      3          6           0        1.307314    0.986444   -0.434357
      4          1           0        1.524407   -0.849910   -1.756103
      5          6           0       -0.180234   -0.213144    0.797738
      6          1           0        0.652658   -2.192686    0.384333
      7          1           0        1.845647   -1.081138    1.175052
      8          8           0       -0.800481   -0.372774   -0.481045
      9          1           0       -0.862607   -0.393625    1.634757
     10          8           0       -2.395823    0.142134   -0.125829
     11          6           0        0.518952    1.149570    0.663126
     12          1           0        1.844460    1.756224   -0.989035
     13          1           0        0.311625    2.057973    1.226618
     14          1           0       -2.592218    0.388974   -1.039511
 ---------------------------------------------------------------------
 Rotational constants (GHZ):           4.8591015           2.3764196           2.1535979
 Leave Link  202 at Mon May 26 12:52:26 2025, MaxMem=  3758096384 cpu:               0.1 elap:               0.0
 (Enter /gpfs/fs1/soft/bebop/software/custom-built/gaussian/16-c.02/g16/l301.exe)
 Standard basis: def2SVP (5D, 7F)
 Ernie: Thresh=  0.10000D-02 Tol=  0.10000D-05 Strict=F.
 There are   140 symmetry adapted cartesian basis functions of A   symmetry.
 There are   133 symmetry adapted basis functions of A   symmetry.
   133 basis functions,   224 primitive gaussians,   140 cartesian basis functions
    27 alpha electrons       26 beta electrons
       nuclear repulsion energy       304.7509186822 Hartrees.
 IExCor= 4639 DFT=T Ex+Corr=wB97XD ExCW=0 ScaHFX=  1.000000
 ScaDFX=  1.000000  1.000000  1.000000  1.000000 ScalE2=  1.000000  1.000000
 IRadAn=      5 IRanWt=     -1 IRanGd=            0 ICorTp=0 IEmpDi=121
 HFx  wShort=  0.000000 wLong=  0.200000 cFull=  0.222036 cShort=  0.000000 cLong=  0.777964
 DFx  wShort=  0.000000 wLong=  0.200000 cFull=  0.000000 cShort=  0.000000 cLong=  1.000000
 NAtoms=   14 NActive=   14 NUniq=   14 SFac= 1.00D+00 NAtFMM=   60 NAOKFM=F Big=F
 Integral buffers will be    131072 words long.
 Raffenetti 2 integral format.
 Two-electron integral symmetry is turned on.
 R6Disp:  Grimme-D2 Dispersion energy=       -0.0058951662 Hartrees.
 Nuclear repulsion after empirical dispersion term =      304.7450235160 Hartrees.
 Leave Link  301 at Mon May 26 12:52:26 2025, MaxMem=  3758096384 cpu:               0.3 elap:               0.1
 (Enter /gpfs/fs1/soft/bebop/software/custom-built/gaussian/16-c.02/g16/l302.exe)
 NPDir=0 NMtPBC=     1 NCelOv=     1 NCel=       1 NClECP=     1 NCelD=      1
         NCelK=      1 NCelE2=     1 NClLst=     1 CellRange=     0.0.
 One-electron integrals computed using PRISM.
 One-electron integral symmetry used in STVInt
   1 Symmetry operations used in ECPInt.
 ECPInt:  NShTT=    2016 NPrTT=    7252 LenC2=    2013 LenP2D=    6058.
 LDataN:  DoStor=T MaxTD1= 4 Len=   56
 NBasis=   133 RedAO= T EigKep=  6.28D-04  NBF=   133
 NBsUse=   133 1.00D-06 EigRej= -1.00D+00 NBFU=   133
 Precomputing XC quadrature grid using
 IXCGrd= 4 IRadAn=           5 IRanWt=          -1 IRanGd=           0 AccXCQ= 0.00D+00.
 Generated NRdTot=       0 NPtTot=           0 NUsed=           0 NTot=          32
 NSgBfM=   140   140   140   140   140 MxSgAt=    14 MxSgA2=    14.
 Leave Link  302 at Mon May 26 12:52:26 2025, MaxMem=  3758096384 cpu:               0.8 elap:               0.2
 (Enter /gpfs/fs1/soft/bebop/software/custom-built/gaussian/16-c.02/g16/l303.exe)
 DipDrv:  MaxL=1.
 Leave Link  303 at Mon May 26 12:52:26 2025, MaxMem=  3758096384 cpu:               0.1 elap:               0.0
 (Enter /gpfs/fs1/soft/bebop/software/custom-built/gaussian/16-c.02/g16/l401.exe)
 ExpMin= 1.22D-01 ExpMax= 2.27D+03 ExpMxC= 3.41D+02 IAcc=3 IRadAn=         5 AccDes= 0.00D+00
 Harris functional with IExCor= 4639 and IRadAn=       5 diagonalized for initial guess.
 HarFok:  IExCor= 4639 AccDes= 0.00D+00 IRadAn=         5 IDoV= 1 UseB2=F ITyADJ=14
 ICtDFT=  3500011 ScaDFX=  1.000000  1.000000  1.000000  1.000000
 FoFCou: FMM=F IPFlag=           0 FMFlag=      100000 FMFlg1=           0
         NFxFlg=           0 DoJE=T BraDBF=F KetDBF=T FulRan=T
         wScrn=  0.000000 ICntrl=       500 IOpCl=  0 I1Cent=   200000004 NGrid=           0
         NMat0=    1 NMatS0=      1 NMatT0=    0 NMatD0=    1 NMtDS0=    0 NMtDT0=    0
 Petite list used in FoFCou.
 Harris En= -330.313640916236    
 JPrj=0 DoOrth=F DoCkMO=F.
 Initial guess <Sx>= 0.0000 <Sy>= 0.0000 <Sz>= 0.5000 <S**2>= 0.7500 S= 0.5000
 Leave Link  401 at Mon May 26 12:52:27 2025, MaxMem=  3758096384 cpu:               2.5 elap:               0.4
 (Enter /gpfs/fs1/soft/bebop/software/custom-built/gaussian/16-c.02/g16/l502.exe)
 Keep R1 and R2 ints in memory in canonical form, NReq=165843657.
 FoFCou: FMM=F IPFlag=           0 FMFlag=           0 FMFlg1=           0
         NFxFlg=           0 DoJE=F BraDBF=F KetDBF=F FulRan=T
         wScrn=  0.000000 ICntrl=       600 IOpCl=  0 I1Cent=           0 NGrid=           0
         NMat0=    1 NMatS0=   8911 NMatT0=    0 NMatD0=    1 NMtDS0=    0 NMtDT0=    0
 Symmetry not used in FoFCou.
 Two-electron integral symmetry not used.
 UHF open shell SCF:
 Using DIIS extrapolation, IDIIS=  1040.
 NGot=  3758096384 LenX=  3599224722 LenY=  3599204681
 Requested convergence on RMS density matrix=1.00D-08 within  32 cycles.
 Requested convergence on MAX density matrix=1.00D-06.
 Requested convergence on             energy=1.00D-06.
 No special actions if energy rises.
 Integral accuracy reduced to 1.0D-05 until final iterations.

 Cycle   1  Pass 0  IDiag  1:
 E= -344.442302926828    
 DIIS: error= 2.39D-02 at cycle   1 NSaved=   1.
 NSaved= 1 IEnMin= 1 EnMin= -344.442302926828     IErMin= 1 ErrMin= 2.39D-02
 ErrMax= 2.39D-02  0.00D+00 EMaxC= 1.00D-01 BMatC= 9.60D-01 BMatP= 9.60D-01
 IDIUse=3 WtCom= 7.61D-01 WtEn= 2.39D-01
 Coeff-Com:  0.100D+01
 Coeff-En:   0.100D+01
 Coeff:      0.100D+01
 Gap=     0.266 Goal=   None    Shift=    0.000
 Gap=     0.395 Goal=   None    Shift=    0.000
 GapD=    0.266 DampG=1.000 DampE=0.500 DampFc=0.5000 IDamp=-1.
 Damping current iteration by 5.00D-01
 RMSDP=6.57D-03 MaxDP=1.75D-01              OVMax= 3.11D-01

 Cycle   2  Pass 0  IDiag  1:
 E= -344.490543519019     Delta-E=       -0.048240592191 Rises=F Damp=T
 DIIS: error= 1.19D-02 at cycle   2 NSaved=   2.
 NSaved= 2 IEnMin= 2 EnMin= -344.490543519019     IErMin= 2 ErrMin= 1.19D-02
 ErrMax= 1.19D-02  0.00D+00 EMaxC= 1.00D-01 BMatC= 1.41D-01 BMatP= 9.60D-01
 IDIUse=3 WtCom= 8.81D-01 WtEn= 1.19D-01
 Coeff-Com:  0.610D-02 0.994D+00
 Coeff-En:   0.201D+00 0.799D+00
 Coeff:      0.294D-01 0.971D+00
 Gap=     0.264 Goal=   None    Shift=    0.000
 Gap=     0.384 Goal=   None    Shift=    0.000
 RMSDP=2.41D-03 MaxDP=6.27D-02 DE=-4.82D-02 OVMax= 2.20D-01

 Cycle   3  Pass 0  IDiag  1:
 E= -344.563372717910     Delta-E=       -0.072829198891 Rises=F Damp=F
 DIIS: error= 5.93D-03 at cycle   3 NSaved=   3.
 NSaved= 3 IEnMin= 3 EnMin= -344.563372717910     IErMin= 3 ErrMin= 5.93D-03
 ErrMax= 5.93D-03  0.00D+00 EMaxC= 1.00D-01 BMatC= 5.13D-02 BMatP= 1.41D-01
 IDIUse=3 WtCom= 9.41D-01 WtEn= 5.93D-02
 Coeff-Com: -0.152D+00 0.379D+00 0.773D+00
 Coeff-En:   0.000D+00 0.000D+00 0.100D+01
 Coeff:     -0.143D+00 0.357D+00 0.786D+00
 Gap=     0.261 Goal=   None    Shift=    0.000
 Gap=     0.301 Goal=   None    Shift=    0.000
 RMSDP=9.82D-04 MaxDP=3.33D-02 DE=-7.28D-02 OVMax= 4.48D-02

 Cycle   4  Pass 0  IDiag  1:
 E= -344.573223237654     Delta-E=       -0.009850519744 Rises=F Damp=F
 DIIS: error= 4.51D-03 at cycle   4 NSaved=   4.
 NSaved= 4 IEnMin= 4 EnMin= -344.573223237654     IErMin= 4 ErrMin= 4.51D-03
 ErrMax= 4.51D-03  0.00D+00 EMaxC= 1.00D-01 BMatC= 1.09D-02 BMatP= 5.13D-02
 IDIUse=3 WtCom= 9.55D-01 WtEn= 4.51D-02
 Coeff-Com: -0.795D-01 0.154D+00 0.453D+00 0.473D+00
 Coeff-En:   0.000D+00 0.000D+00 0.000D+00 0.100D+01
 Coeff:     -0.759D-01 0.147D+00 0.432D+00 0.497D+00
 Gap=     0.266 Goal=   None    Shift=    0.000
 Gap=     0.299 Goal=   None    Shift=    0.000
 RMSDP=3.82D-04 MaxDP=1.64D-02 DE=-9.85D-03 OVMax= 1.65D-02

 Cycle   5  Pass 0  IDiag  1:
 E= -344.575686788294     Delta-E=       -0.002463550640 Rises=F Damp=F
 DIIS: error= 1.49D-03 at cycle   5 NSaved=   5.
 NSaved= 5 IEnMin= 5 EnMin= -344.575686788294     IErMin= 5 ErrMin= 1.49D-03
 ErrMax= 1.49D-03  0.00D+00 EMaxC= 1.00D-01 BMatC= 9.86D-04 BMatP= 1.09D-02
 IDIUse=3 WtCom= 9.85D-01 WtEn= 1.49D-02
 Coeff-Com: -0.114D-01 0.125D-01 0.679D-01 0.193D+00 0.738D+00
 Coeff-En:   0.000D+00 0.000D+00 0.000D+00 0.000D+00 0.100D+01
 Coeff:     -0.112D-01 0.123D-01 0.669D-01 0.190D+00 0.742D+00
 Gap=     0.271 Goal=   None    Shift=    0.000
 Gap=     0.298 Goal=   None    Shift=    0.000
 RMSDP=2.27D-04 MaxDP=7.94D-03 DE=-2.46D-03 OVMax= 1.16D-02

 Cycle   6  Pass 0  IDiag  1:
 E= -344.576439319184     Delta-E=       -0.000752530890 Rises=F Damp=F
 DIIS: error= 8.30D-04 at cycle   6 NSaved=   6.
 NSaved= 6 IEnMin= 6 EnMin= -344.576439319184     IErMin= 6 ErrMin= 8.30D-04
 ErrMax= 8.30D-04  0.00D+00 EMaxC= 1.00D-01 BMatC= 4.38D-04 BMatP= 9.86D-04
 IDIUse=3 WtCom= 9.92D-01 WtEn= 8.30D-03
 Coeff-Com:  0.423D-01-0.829D-01-0.239D+00-0.236D+00 0.264D+00 0.125D+01
 Coeff-En:   0.000D+00 0.000D+00 0.000D+00 0.000D+00 0.000D+00 0.100D+01
 Coeff:      0.419D-01-0.822D-01-0.237D+00-0.234D+00 0.261D+00 0.125D+01
 Gap=     0.277 Goal=   None    Shift=    0.000
 Gap=     0.303 Goal=   None    Shift=    0.000
 RMSDP=3.33D-04 MaxDP=1.07D-02 DE=-7.53D-04 OVMax= 1.63D-02

 Cycle   7  Pass 0  IDiag  1:
 E= -344.577230992490     Delta-E=       -0.000791673306 Rises=F Damp=F
 DIIS: error= 3.66D-04 at cycle   7 NSaved=   7.
 NSaved= 7 IEnMin= 7 EnMin= -344.577230992490     IErMin= 7 ErrMin= 3.66D-04
 ErrMax= 3.66D-04  0.00D+00 EMaxC= 1.00D-01 BMatC= 1.12D-04 BMatP= 4.38D-04
 IDIUse=3 WtCom= 9.96D-01 WtEn= 3.66D-03
 Coeff-Com:  0.865D-02-0.130D-01-0.555D-01-0.943D-01-0.209D+00 0.218D+00
 Coeff-Com:  0.115D+01
 Coeff-En:   0.000D+00 0.000D+00 0.000D+00 0.000D+00 0.000D+00 0.000D+00
 Coeff-En:   0.100D+01
 Coeff:      0.861D-02-0.130D-01-0.553D-01-0.940D-01-0.209D+00 0.217D+00
 Coeff:      0.115D+01
 Gap=     0.280 Goal=   None    Shift=    0.000
 Gap=     0.306 Goal=   None    Shift=    0.000
 RMSDP=1.88D-04 MaxDP=6.64D-03 DE=-7.92D-04 OVMax= 1.01D-02

 Cycle   8  Pass 0  IDiag  1:
 E= -344.577476417320     Delta-E=       -0.000245424829 Rises=F Damp=F
 DIIS: error= 2.07D-04 at cycle   8 NSaved=   8.
 NSaved= 8 IEnMin= 8 EnMin= -344.577476417320     IErMin= 8 ErrMin= 2.07D-04
 ErrMax= 2.07D-04  0.00D+00 EMaxC= 1.00D-01 BMatC= 3.66D-05 BMatP= 1.12D-04
 IDIUse=3 WtCom= 9.98D-01 WtEn= 2.07D-03
 Coeff-Com: -0.941D-02 0.192D-01 0.522D-01 0.403D-01-0.118D+00-0.277D+00
 Coeff-Com:  0.237D+00 0.106D+01
 Coeff-En:   0.000D+00 0.000D+00 0.000D+00 0.000D+00 0.000D+00 0.000D+00
 Coeff-En:   0.000D+00 0.100D+01
 Coeff:     -0.939D-02 0.192D-01 0.521D-01 0.403D-01-0.118D+00-0.276D+00
 Coeff:      0.237D+00 0.106D+01
 Gap=     0.281 Goal=   None    Shift=    0.000
 Gap=     0.306 Goal=   None    Shift=    0.000
 RMSDP=9.33D-05 MaxDP=3.66D-03 DE=-2.45D-04 OVMax= 5.83D-03

 Cycle   9  Pass 0  IDiag  1:
 E= -344.577548399312     Delta-E=       -0.000071981993 Rises=F Damp=F
 DIIS: error= 1.84D-04 at cycle   9 NSaved=   9.
 NSaved= 9 IEnMin= 9 EnMin= -344.577548399312     IErMin= 9 ErrMin= 1.84D-04
 ErrMax= 1.84D-04  0.00D+00 EMaxC= 1.00D-01 BMatC= 1.59D-05 BMatP= 3.66D-05
 IDIUse=3 WtCom= 9.98D-01 WtEn= 1.84D-03
 Coeff-Com: -0.423D-02 0.721D-02 0.306D-01 0.375D-01 0.447D-01-0.126D+00
 Coeff-Com: -0.388D+00 0.350D+00 0.105D+01
 Coeff-En:   0.000D+00 0.000D+00 0.000D+00 0.000D+00 0.000D+00 0.000D+00
 Coeff-En:   0.000D+00 0.000D+00 0.100D+01
 Coeff:     -0.422D-02 0.720D-02 0.305D-01 0.375D-01 0.446D-01-0.125D+00
 Coeff:     -0.387D+00 0.350D+00 0.105D+01
 Gap=     0.282 Goal=   None    Shift=    0.000
 Gap=     0.307 Goal=   None    Shift=    0.000
 RMSDP=6.21D-05 MaxDP=2.31D-03 DE=-7.20D-05 OVMax= 4.19D-03

 Failed to achieve initial convergence to 1.0D-08 in 10 cycles.
 Switch to full accuracy anyway.
 Cycle  10  Pass 1  IDiag  1:
 E= -344.577600715197     Delta-E=       -0.000052315884 Rises=F Damp=F
 DIIS: error= 5.79D-05 at cycle   1 NSaved=   1.
 NSaved= 1 IEnMin= 1 EnMin= -344.577600715197     IErMin= 1 ErrMin= 5.79D-05
 ErrMax= 5.79D-05  0.00D+00 EMaxC= 1.00D-01 BMatC= 4.60D-06 BMatP= 4.60D-06
 IDIUse=1 WtCom= 1.00D+00 WtEn= 0.00D+00
 Coeff-Com:  0.100D+01
 Coeff:      0.100D+01
 Gap=     0.282 Goal=   None    Shift=    0.000
 Gap=     0.306 Goal=   None    Shift=    0.000
 RMSDP=6.21D-05 MaxDP=2.31D-03 DE=-5.23D-05 OVMax= 1.30D-03

 Cycle  11  Pass 1  IDiag  1:
 E= -344.577605348192     Delta-E=       -0.000004632996 Rises=F Damp=F
 DIIS: error= 5.69D-05 at cycle   2 NSaved=   2.
 NSaved= 2 IEnMin= 2 EnMin= -344.577605348192     IErMin= 2 ErrMin= 5.69D-05
 ErrMax= 5.69D-05  0.00D+00 EMaxC= 1.00D-01 BMatC= 2.63D-06 BMatP= 4.60D-06
 IDIUse=1 WtCom= 1.00D+00 WtEn= 0.00D+00
 Coeff-Com:  0.329D+00 0.671D+00
 Coeff:      0.329D+00 0.671D+00
 Gap=     0.282 Goal=   None    Shift=    0.000
 Gap=     0.307 Goal=   None    Shift=    0.000
 RMSDP=1.03D-05 MaxDP=3.42D-04 DE=-4.63D-06 OVMax= 7.69D-04

 Cycle  12  Pass 1  IDiag  1:
 E= -344.577607313083     Delta-E=       -0.000001964891 Rises=F Damp=F
 DIIS: error= 3.96D-05 at cycle   3 NSaved=   3.
 NSaved= 3 IEnMin= 3 EnMin= -344.577607313083     IErMin= 3 ErrMin= 3.96D-05
 ErrMax= 3.96D-05  0.00D+00 EMaxC= 1.00D-01 BMatC= 1.51D-06 BMatP= 2.63D-06
 IDIUse=1 WtCom= 1.00D+00 WtEn= 0.00D+00
 Coeff-Com: -0.424D+00 0.252D+00 0.117D+01
 Coeff:     -0.424D+00 0.252D+00 0.117D+01
 Gap=     0.282 Goal=   None    Shift=    0.000
 Gap=     0.307 Goal=   None    Shift=    0.000
 RMSDP=1.79D-05 MaxDP=6.27D-04 DE=-1.96D-06 OVMax= 1.32D-03

 Cycle  13  Pass 1  IDiag  1:
 E= -344.577609927802     Delta-E=       -0.000002614719 Rises=F Damp=F
 DIIS: error= 3.65D-05 at cycle   4 NSaved=   4.
 NSaved= 4 IEnMin= 4 EnMin= -344.577609927802     IErMin= 4 ErrMin= 3.65D-05
 ErrMax= 3.65D-05  0.00D+00 EMaxC= 1.00D-01 BMatC= 6.20D-07 BMatP= 1.51D-06
 IDIUse=1 WtCom= 1.00D+00 WtEn= 0.00D+00
 Coeff-Com: -0.378D+00-0.113D+00 0.567D+00 0.924D+00
 Coeff:     -0.378D+00-0.113D+00 0.567D+00 0.924D+00
 Gap=     0.282 Goal=   None    Shift=    0.000
 Gap=     0.307 Goal=   None    Shift=    0.000
 RMSDP=1.40D-05 MaxDP=4.27D-04 DE=-2.61D-06 OVMax= 9.74D-04

 Cycle  14  Pass 1  IDiag  1:
 E= -344.577611142758     Delta-E=       -0.000001214957 Rises=F Damp=F
 DIIS: error= 1.97D-05 at cycle   5 NSaved=   5.
 NSaved= 5 IEnMin= 5 EnMin= -344.577611142758     IErMin= 5 ErrMin= 1.97D-05
 ErrMax= 1.97D-05  0.00D+00 EMaxC= 1.00D-01 BMatC= 2.74D-07 BMatP= 6.20D-07
 IDIUse=1 WtCom= 1.00D+00 WtEn= 0.00D+00
 Coeff-Com:  0.445D-01-0.157D+00-0.432D+00 0.535D+00 0.101D+01
 Coeff:      0.445D-01-0.157D+00-0.432D+00 0.535D+00 0.101D+01
 Gap=     0.282 Goal=   None    Shift=    0.000
 Gap=     0.307 Goal=   None    Shift=    0.000
 RMSDP=1.11D-05 MaxDP=4.29D-04 DE=-1.21D-06 OVMax= 8.18D-04

 Cycle  15  Pass 1  IDiag  1:
 E= -344.577611630370     Delta-E=       -0.000000487612 Rises=F Damp=F
 DIIS: error= 7.68D-06 at cycle   6 NSaved=   6.
 NSaved= 6 IEnMin= 6 EnMin= -344.577611630370     IErMin= 6 ErrMin= 7.68D-06
 ErrMax= 7.68D-06  0.00D+00 EMaxC= 1.00D-01 BMatC= 4.59D-08 BMatP= 2.74D-07
 IDIUse=1 WtCom= 1.00D+00 WtEn= 0.00D+00
 Coeff-Com:  0.887D-01-0.780D-02-0.269D+00-0.130D-01 0.292D+00 0.909D+00
 Coeff:      0.887D-01-0.780D-02-0.269D+00-0.130D-01 0.292D+00 0.909D+00
 Gap=     0.282 Goal=   None    Shift=    0.000
 Gap=     0.307 Goal=   None    Shift=    0.000
 RMSDP=3.57D-06 MaxDP=1.02D-04 DE=-4.88D-07 OVMax= 2.29D-04

 Cycle  16  Pass 1  IDiag  1:
 E= -344.577611706252     Delta-E=       -0.000000075881 Rises=F Damp=F
 DIIS: error= 3.57D-06 at cycle   7 NSaved=   7.
 NSaved= 7 IEnMin= 7 EnMin= -344.577611706252     IErMin= 7 ErrMin= 3.57D-06
 ErrMax= 3.57D-06  0.00D+00 EMaxC= 1.00D-01 BMatC= 1.35D-08 BMatP= 4.59D-08
 IDIUse=1 WtCom= 1.00D+00 WtEn= 0.00D+00
 Coeff-Com:  0.188D-02 0.586D-01 0.905D-01-0.175D+00-0.287D+00 0.117D+00
 Coeff-Com:  0.119D+01
 Coeff:      0.188D-02 0.586D-01 0.905D-01-0.175D+00-0.287D+00 0.117D+00
 Coeff:      0.119D+01
 Gap=     0.282 Goal=   None    Shift=    0.000
 Gap=     0.307 Goal=   None    Shift=    0.000
 RMSDP=2.32D-06 MaxDP=6.43D-05 DE=-7.59D-08 OVMax= 1.45D-04

 Cycle  17  Pass 1  IDiag  1:
 E= -344.577611736148     Delta-E=       -0.000000029896 Rises=F Damp=F
 DIIS: error= 1.89D-06 at cycle   8 NSaved=   8.
 NSaved= 8 IEnMin= 8 EnMin= -344.577611736148     IErMin= 8 ErrMin= 1.89D-06
 ErrMax= 1.89D-06  0.00D+00 EMaxC= 1.00D-01 BMatC= 4.48D-09 BMatP= 1.35D-08
 IDIUse=1 WtCom= 1.00D+00 WtEn= 0.00D+00
 Coeff-Com: -0.322D-01 0.250D-01 0.133D+00-0.685D-01-0.226D+00-0.268D+00
 Coeff-Com:  0.466D+00 0.971D+00
 Coeff:     -0.322D-01 0.250D-01 0.133D+00-0.685D-01-0.226D+00-0.268D+00
 Coeff:      0.466D+00 0.971D+00
 Gap=     0.282 Goal=   None    Shift=    0.000
 Gap=     0.307 Goal=   None    Shift=    0.000
 RMSDP=1.46D-06 MaxDP=3.85D-05 DE=-2.99D-08 OVMax= 1.02D-04

 Cycle  18  Pass 1  IDiag  1:
 E= -344.577611744925     Delta-E=       -0.000000008778 Rises=F Damp=F
 DIIS: error= 1.20D-06 at cycle   9 NSaved=   9.
 NSaved= 9 IEnMin= 9 EnMin= -344.577611744925     IErMin= 9 ErrMin= 1.20D-06
 ErrMax= 1.20D-06  0.00D+00 EMaxC= 1.00D-01 BMatC= 1.04D-09 BMatP= 4.48D-09
 IDIUse=1 WtCom= 1.00D+00 WtEn= 0.00D+00
 Coeff-Com: -0.809D-02-0.195D-02 0.250D-01 0.545D-02-0.244D-01-0.683D-01
 Coeff-Com: -0.598D-01 0.255D+00 0.877D+00
 Coeff:     -0.809D-02-0.195D-02 0.250D-01 0.545D-02-0.244D-01-0.683D-01
 Coeff:     -0.598D-01 0.255D+00 0.877D+00
 Gap=     0.282 Goal=   None    Shift=    0.000
 Gap=     0.307 Goal=   None    Shift=    0.000
 RMSDP=4.10D-07 MaxDP=1.12D-05 DE=-8.78D-09 OVMax= 3.29D-05

 Cycle  19  Pass 1  IDiag  1:
 E= -344.577611746506     Delta-E=       -0.000000001581 Rises=F Damp=F
 DIIS: error= 8.05D-07 at cycle  10 NSaved=  10.
 NSaved=10 IEnMin=10 EnMin= -344.577611746506     IErMin=10 ErrMin= 8.05D-07
 ErrMax= 8.05D-07  0.00D+00 EMaxC= 1.00D-01 BMatC= 5.21D-10 BMatP= 1.04D-09
 IDIUse=1 WtCom= 1.00D+00 WtEn= 0.00D+00
 Coeff-Com:  0.163D-01-0.179D-01-0.695D-01 0.429D-01 0.123D+00 0.153D+00
 Coeff-Com: -0.318D+00-0.462D+00 0.303D+00 0.123D+01
 Coeff:      0.163D-01-0.179D-01-0.695D-01 0.429D-01 0.123D+00 0.153D+00
 Coeff:     -0.318D+00-0.462D+00 0.303D+00 0.123D+01
 Gap=     0.282 Goal=   None    Shift=    0.000
 Gap=     0.307 Goal=   None    Shift=    0.000
 RMSDP=5.01D-07 MaxDP=1.55D-05 DE=-1.58D-09 OVMax= 4.24D-05

 Cycle  20  Pass 1  IDiag  1:
 E= -344.577611747893     Delta-E=       -0.000000001386 Rises=F Damp=F
 DIIS: error= 5.91D-07 at cycle  11 NSaved=  11.
 NSaved=11 IEnMin=11 EnMin= -344.577611747893     IErMin=11 ErrMin= 5.91D-07
 ErrMax= 5.91D-07  0.00D+00 EMaxC= 1.00D-01 BMatC= 1.54D-10 BMatP= 5.21D-10
 IDIUse=1 WtCom= 1.00D+00 WtEn= 0.00D+00
 Coeff-Com:  0.768D-04 0.349D-02 0.474D-02-0.910D-02-0.176D-01 0.257D-02
 Coeff-Com:  0.765D-01 0.164D-01-0.447D+00-0.240D+00 0.161D+01
 Coeff:      0.768D-04 0.349D-02 0.474D-02-0.910D-02-0.176D-01 0.257D-02
 Coeff:      0.765D-01 0.164D-01-0.447D+00-0.240D+00 0.161D+01
 Gap=     0.282 Goal=   None    Shift=    0.000
 Gap=     0.307 Goal=   None    Shift=    0.000
 RMSDP=4.16D-07 MaxDP=1.18D-05 DE=-1.39D-09 OVMax= 3.53D-05

 Cycle  21  Pass 1  IDiag  1:
 E= -344.577611748514     Delta-E=       -0.000000000622 Rises=F Damp=F
 DIIS: error= 2.88D-07 at cycle  12 NSaved=  12.
 NSaved=12 IEnMin=12 EnMin= -344.577611748514     IErMin=12 ErrMin= 2.88D-07
 ErrMax= 2.88D-07  0.00D+00 EMaxC= 1.00D-01 BMatC= 3.99D-11 BMatP= 1.54D-10
 IDIUse=1 WtCom= 1.00D+00 WtEn= 0.00D+00
 Coeff-Com: -0.439D-02 0.539D-02 0.186D-01-0.120D-01-0.337D-01-0.435D-01
 Coeff-Com:  0.953D-01 0.123D+00-0.112D+00-0.355D+00 0.112D+00 0.121D+01
 Coeff:     -0.439D-02 0.539D-02 0.186D-01-0.120D-01-0.337D-01-0.435D-01
 Coeff:      0.953D-01 0.123D+00-0.112D+00-0.355D+00 0.112D+00 0.121D+01
 Gap=     0.282 Goal=   None    Shift=    0.000
 Gap=     0.307 Goal=   None    Shift=    0.000
 RMSDP=1.93D-07 MaxDP=5.32D-06 DE=-6.22D-10 OVMax= 1.64D-05

 Cycle  22  Pass 1  IDiag  1:
 E= -344.577611748654     Delta-E=       -0.000000000140 Rises=F Damp=F
 DIIS: error= 1.51D-07 at cycle  13 NSaved=  13.
 NSaved=13 IEnMin=13 EnMin= -344.577611748654     IErMin=13 ErrMin= 1.51D-07
 ErrMax= 1.51D-07  0.00D+00 EMaxC= 1.00D-01 BMatC= 1.44D-11 BMatP= 3.99D-11
 IDIUse=1 WtCom= 1.00D+00 WtEn= 0.00D+00
 Coeff-Com: -0.533D-03-0.829D-05 0.732D-04 0.118D-02 0.237D-02-0.871D-02
 Coeff-Com: -0.797D-02 0.355D-02 0.131D+00 0.335D-01-0.499D+00 0.153D+00
 Coeff-Com:  0.119D+01
 Coeff:     -0.533D-03-0.829D-05 0.732D-04 0.118D-02 0.237D-02-0.871D-02
 Coeff:     -0.797D-02 0.355D-02 0.131D+00 0.335D-01-0.499D+00 0.153D+00
 Coeff:      0.119D+01
 Gap=     0.282 Goal=   None    Shift=    0.000
 Gap=     0.307 Goal=   None    Shift=    0.000
 RMSDP=1.05D-07 MaxDP=2.74D-06 DE=-1.40D-10 OVMax= 9.34D-06

 Cycle  23  Pass 1  IDiag  1:
 E= -344.577611748696     Delta-E=       -0.000000000042 Rises=F Damp=F
 DIIS: error= 6.91D-08 at cycle  14 NSaved=  14.
 NSaved=14 IEnMin=14 EnMin= -344.577611748696     IErMin=14 ErrMin= 6.91D-08
 ErrMax= 6.91D-08  0.00D+00 EMaxC= 1.00D-01 BMatC= 4.18D-12 BMatP= 1.44D-11
 IDIUse=1 WtCom= 1.00D+00 WtEn= 0.00D+00
 Coeff-Com:  0.177D-02-0.181D-02-0.799D-02 0.445D-02 0.145D-01 0.157D-01
 Coeff-Com: -0.327D-01-0.557D-01 0.390D-01 0.140D+00-0.137D-01-0.493D+00
 Coeff-Com: -0.566D-01 0.145D+01
 Coeff:      0.177D-02-0.181D-02-0.799D-02 0.445D-02 0.145D-01 0.157D-01
 Coeff:     -0.327D-01-0.557D-01 0.390D-01 0.140D+00-0.137D-01-0.493D+00
 Coeff:     -0.566D-01 0.145D+01
 Gap=     0.282 Goal=   None    Shift=    0.000
 Gap=     0.307 Goal=   None    Shift=    0.000
 RMSDP=7.02D-08 MaxDP=1.87D-06 DE=-4.17D-11 OVMax= 6.05D-06

 Cycle  24  Pass 1  IDiag  1:
 E= -344.577611748707     Delta-E=       -0.000000000011 Rises=F Damp=F
 DIIS: error= 2.41D-08 at cycle  15 NSaved=  15.
 NSaved=15 IEnMin=15 EnMin= -344.577611748707     IErMin=15 ErrMin= 2.41D-08
 ErrMax= 2.41D-08  0.00D+00 EMaxC= 1.00D-01 BMatC= 5.41D-13 BMatP= 4.18D-12
 IDIUse=1 WtCom= 1.00D+00 WtEn= 0.00D+00
 Coeff-Com: -0.224D-03 0.393D-03 0.128D-02-0.101D-02-0.261D-02-0.186D-02
 Coeff-Com:  0.805D-02 0.781D-02-0.288D-01-0.298D-01 0.923D-01 0.510D-01
 Coeff-Com: -0.205D+00-0.220D+00 0.133D+01
 Coeff:     -0.224D-03 0.393D-03 0.128D-02-0.101D-02-0.261D-02-0.186D-02
 Coeff:      0.805D-02 0.781D-02-0.288D-01-0.298D-01 0.923D-01 0.510D-01
 Coeff:     -0.205D+00-0.220D+00 0.133D+01
 Gap=     0.282 Goal=   None    Shift=    0.000
 Gap=     0.307 Goal=   None    Shift=    0.000
 RMSDP=2.03D-08 MaxDP=6.12D-07 DE=-1.08D-11 OVMax= 1.77D-06

 Cycle  25  Pass 1  IDiag  1:
 E= -344.577611748710     Delta-E=       -0.000000000003 Rises=F Damp=F
 DIIS: error= 1.44D-08 at cycle  16 NSaved=  16.
 NSaved=16 IEnMin=16 EnMin= -344.577611748710     IErMin=16 ErrMin= 1.44D-08
 ErrMax= 1.44D-08  0.00D+00 EMaxC= 1.00D-01 BMatC= 1.23D-13 BMatP= 5.41D-13
 IDIUse=1 WtCom= 1.00D+00 WtEn= 0.00D+00
 Coeff-Com: -0.358D-03 0.388D-03 0.165D-02-0.968D-03-0.303D-02-0.305D-02
 Coeff-Com:  0.724D-02 0.111D-01-0.124D-01-0.303D-01 0.201D-01 0.926D-01
 Coeff-Com: -0.229D-01-0.272D+00 0.169D+00 0.104D+01
 Coeff:     -0.358D-03 0.388D-03 0.165D-02-0.968D-03-0.303D-02-0.305D-02
 Coeff:      0.724D-02 0.111D-01-0.124D-01-0.303D-01 0.201D-01 0.926D-01
 Coeff:     -0.229D-01-0.272D+00 0.169D+00 0.104D+01
 Gap=     0.282 Goal=   None    Shift=    0.000
 Gap=     0.307 Goal=   None    Shift=    0.000
 RMSDP=6.37D-09 MaxDP=1.81D-07 DE=-3.41D-12 OVMax= 6.75D-07

 SCF Done:  E(UwB97XD) =  -344.577611749     A.U. after   25 cycles
            NFock= 25  Conv=0.64D-08     -V/T= 2.0090
 <Sx>= 0.0000 <Sy>= 0.0000 <Sz>= 0.5000 <S**2>= 0.8435 S= 0.5457
 <L.S>=  0.00000000000    
 KE= 3.414892398292D+02 PE=-1.414567725976D+03 EE= 4.237558508825D+02
 Annihilation of the first spin contaminant:
 S**2 before annihilation     0.8435,   after     0.7539
 Leave Link  502 at Mon May 26 12:52:42 2025, MaxMem=  3758096384 cpu:              74.9 elap:              15.1
 (Enter /gpfs/fs1/soft/bebop/software/custom-built/gaussian/16-c.02/g16/l508.exe)
 QCSCF skips out because SCF is already converged.
 Leave Link  508 at Mon May 26 12:52:42 2025, MaxMem=  3758096384 cpu:               0.0 elap:               0.0
 (Enter /gpfs/fs1/soft/bebop/software/custom-built/gaussian/16-c.02/g16/l801.exe)
 DoSCS=F DFT=T ScalE2(SS,OS)=  1.000000  1.000000
 Range of M.O.s used for correlation:     1   133
 NBasis=   133 NAE=    27 NBE=    26 NFC=     0 NFV=     0
 NROrb=    133 NOA=    27 NOB=    26 NVA=   106 NVB=   107
 Leave Link  801 at Mon May 26 12:52:42 2025, MaxMem=  3758096384 cpu:               0.1 elap:               0.0
 (Enter /gpfs/fs1/soft/bebop/software/custom-built/gaussian/16-c.02/g16/l1101.exe)
 Using compressed storage, NAtomX=    14.
 Will process     15 centers per pass.
   1 Symmetry operations used in ECPInt.
 ECPInt:  NShTT=    2016 NPrTT=    7252 LenC2=    2013 LenP2D=    6058.
 LDataN:  DoStor=T MaxTD1= 5 Len=  102
 R6Disp: Adding Grimme-D2 dispersion energy 1st derivatives to the gradient.
 Leave Link 1101 at Mon May 26 12:52:42 2025, MaxMem=  3758096384 cpu:               0.6 elap:               0.1
 (Enter /gpfs/fs1/soft/bebop/software/custom-built/gaussian/16-c.02/g16/l1102.exe)
 Symmetrizing basis deriv contribution to polar:
 IMax=3 JMax=2 DiffMx= 0.00D+00
 Leave Link 1102 at Mon May 26 12:52:42 2025, MaxMem=  3758096384 cpu:               0.1 elap:               0.0
 (Enter /gpfs/fs1/soft/bebop/software/custom-built/gaussian/16-c.02/g16/l1110.exe)
 Forming Gx(P) for the SCF density, NAtomX=    14.
 Integral derivatives from FoFJK, PRISM(SPDF).
 Do as many integral derivatives as possible in FoFJK.
 G2DrvN: MDV=    3758094806.
 G2DrvN: will do    15 centers at a time, making    1 passes.
 Calling FoFCou, ICntrl=  3107 FMM=F I1Cent=   0 AccDes= 0.00D+00.
 FoFJK:  IHMeth= 1 ICntrl=    3107 DoSepK=T KAlg= 0 I1Cent=           0 FoldK=F
 IRaf=         1 NMat=       1 IRICut=       1 DoRegI=T DoRafI=F ISym2E= 0 IDoP0=0 IntGTp=1.
 FoFCou: FMM=F IPFlag=           0 FMFlag=      100000 FMFlg1=           0
         NFxFlg=           0 DoJE=F BraDBF=F KetDBF=F FulRan=T
         wScrn=  0.000000 ICntrl=      3507 IOpCl=  0 I1Cent=           0 NGrid=           0
         NMat0=    1 NMatS0=      1 NMatT0=    0 NMatD0=    1 NMtDS0=    0 NMtDT0=    0
 Symmetry not used in FoFCou.
 End of G2Drv F.D. properties file   721 does not exist.
 End of G2Drv F.D. properties file   722 does not exist.
 End of G2Drv F.D. properties file   788 does not exist.
 Leave Link 1110 at Mon May 26 12:52:58 2025, MaxMem=  3758096384 cpu:              92.8 elap:              15.5
 (Enter /gpfs/fs1/soft/bebop/software/custom-built/gaussian/16-c.02/g16/l1002.exe)
 Minotr:  UHF open shell wavefunction.
          IDoAtm=11111111111111
          Direct CPHF calculation.
          Differentiating once with respect to nuclear coordinates.
          Requested convergence is 1.0D-08 RMS, and 1.0D-07 maximum.
          Secondary convergence is 1.0D-12 RMS, and 1.0D-12 maximum.
          NewPWx=T KeepS1=F KeepF1=F KeepIn=T MapXYZ=F SortEE=F KeepMc=T.
         4145 words used for storage of precomputed grid.
 Keep R1 and R2 ints in memory in canonical form, NReq=165837192.
 FoFCou: FMM=F IPFlag=           0 FMFlag=           0 FMFlg1=           0
         NFxFlg=           0 DoJE=F BraDBF=F KetDBF=F FulRan=T
         wScrn=  0.000000 ICntrl=       600 IOpCl=  0 I1Cent=           0 NGrid=           0
         NMat0=    1 NMatS0=   8911 NMatT0=    0 NMatD0=    1 NMtDS0=    0 NMtDT0=    0
 Symmetry not used in FoFCou.
 Two-electron integral symmetry not used.
          MDV=    3758096384 using IRadAn=       1.
          Solving linear equations simultaneously, MaxMat=       0.
          There are    45 degrees of freedom in the 1st order CPHF.  IDoFFX=6 NUNeed=     0.
     39 vectors produced by pass  0 Test12= 1.25D-14 2.22D-09 XBig12= 1.36D-01 1.78D-01.
 AX will form    39 AO Fock derivatives at one time.
     39 vectors produced by pass  1 Test12= 1.25D-14 2.22D-09 XBig12= 1.39D-02 3.99D-02.
     39 vectors produced by pass  2 Test12= 1.25D-14 2.22D-09 XBig12= 8.36D-04 6.27D-03.
     39 vectors produced by pass  3 Test12= 1.25D-14 2.22D-09 XBig12= 1.27D-05 7.08D-04.
     39 vectors produced by pass  4 Test12= 1.25D-14 2.22D-09 XBig12= 1.75D-07 6.21D-05.
     39 vectors produced by pass  5 Test12= 1.25D-14 2.22D-09 XBig12= 1.97D-09 5.96D-06.
     39 vectors produced by pass  6 Test12= 1.25D-14 2.22D-09 XBig12= 2.10D-11 6.49D-07.
     27 vectors produced by pass  7 Test12= 1.25D-14 2.22D-09 XBig12= 2.01D-13 4.63D-08.
      5 vectors produced by pass  8 Test12= 1.25D-14 2.22D-09 XBig12= 1.66D-15 4.17D-09.
 InvSVY:  IOpt=1 It=  1 EMax= 2.00D-15
 Solved reduced A of dimension   305 with    39 vectors.
 End of Minotr F.D. properties file   721 does not exist.
 End of Minotr F.D. properties file   722 does not exist.
 End of Minotr F.D. properties file   788 does not exist.
 Leave Link 1002 at Mon May 26 12:53:15 2025, MaxMem=  3758096384 cpu:             104.5 elap:              17.5
 (Enter /gpfs/fs1/soft/bebop/software/custom-built/gaussian/16-c.02/g16/l601.exe)
 Copying SCF densities to generalized density rwf, IOpCl= 1 IROHF=0.

 **********************************************************************

            Population analysis using the SCF Density.

 **********************************************************************

 Orbital symmetries:
 Alpha Orbitals:
       Occupied  (A) (A) (A) (A) (A) (A) (A) (A) (A) (A) (A) (A)
                 (A) (A) (A) (A) (A) (A) (A) (A) (A) (A) (A) (A)
                 (A) (A) (A)
       Virtual   (A) (A) (A) (A) (A) (A) (A) (A) (A) (A) (A) (A)
                 (A) (A) (A) (A) (A) (A) (A) (A) (A) (A) (A) (A)
                 (A) (A) (A) (A) (A) (A) (A) (A) (A) (A) (A) (A)
                 (A) (A) (A) (A) (A) (A) (A) (A) (A) (A) (A) (A)
                 (A) (A) (A) (A) (A) (A) (A) (A) (A) (A) (A) (A)
                 (A) (A) (A) (A) (A) (A) (A) (A) (A) (A) (A) (A)
                 (A) (A) (A) (A) (A) (A) (A) (A) (A) (A) (A) (A)
                 (A) (A) (A) (A) (A) (A) (A) (A) (A) (A) (A) (A)
                 (A) (A) (A) (A) (A) (A) (A) (A) (A) (A)
 Beta  Orbitals:
       Occupied  (A) (A) (A) (A) (A) (A) (A) (A) (A) (A) (A) (A)
                 (A) (A) (A) (A) (A) (A) (A) (A) (A) (A) (A) (A)
                 (A) (A)
       Virtual   (A) (A) (A) (A) (A) (A) (A) (A) (A) (A) (A) (A)
                 (A) (A) (A) (A) (A) (A) (A) (A) (A) (A) (A) (A)
                 (A) (A) (A) (A) (A) (A) (A) (A) (A) (A) (A) (A)
                 (A) (A) (A) (A) (A) (A) (A) (A) (A) (A) (A) (A)
                 (A) (A) (A) (A) (A) (A) (A) (A) (A) (A) (A) (A)
                 (A) (A) (A) (A) (A) (A) (A) (A) (A) (A) (A) (A)
                 (A) (A) (A) (A) (A) (A) (A) (A) (A) (A) (A) (A)
                 (A) (A) (A) (A) (A) (A) (A) (A) (A) (A) (A) (A)
                 (A) (A) (A) (A) (A) (A) (A) (A) (A) (A) (A)
 The electronic state is 2-A.
 Alpha  occ. eigenvalues --  -19.29239 -19.26361 -10.35608 -10.34206 -10.31077
 Alpha  occ. eigenvalues --  -10.30976 -10.30774  -1.12954  -1.02959  -0.92433
 Alpha  occ. eigenvalues --   -0.81507  -0.78293  -0.65725  -0.63093  -0.62462
 Alpha  occ. eigenvalues --   -0.57542  -0.53061  -0.50437  -0.49625  -0.46893
 Alpha  occ. eigenvalues --   -0.46441  -0.45561  -0.43091  -0.40067  -0.36910
 Alpha  occ. eigenvalues --   -0.32377  -0.26350
 Alpha virt. eigenvalues --    0.01863   0.09347   0.15010   0.17931   0.18246
 Alpha virt. eigenvalues --    0.19325   0.20421   0.21326   0.21965   0.26061
 Alpha virt. eigenvalues --    0.27838   0.28616   0.31922   0.37923   0.41699
 Alpha virt. eigenvalues --    0.46547   0.49850   0.54349   0.56575   0.57160
 Alpha virt. eigenvalues --    0.60016   0.61634   0.64405   0.65609   0.67825
 Alpha virt. eigenvalues --    0.68342   0.70371   0.72016   0.72717   0.74376
 Alpha virt. eigenvalues --    0.75545   0.77127   0.77633   0.79429   0.79861
 Alpha virt. eigenvalues --    0.85850   0.87595   0.94436   0.97910   1.02234
 Alpha virt. eigenvalues --    1.04244   1.04860   1.11112   1.13629   1.22544
 Alpha virt. eigenvalues --    1.28287   1.33587   1.35215   1.37162   1.39132
 Alpha virt. eigenvalues --    1.40438   1.43825   1.52981   1.54852   1.61864
 Alpha virt. eigenvalues --    1.63681   1.67408   1.68858   1.69667   1.71972
 Alpha virt. eigenvalues --    1.78675   1.79557   1.81399   1.84224   1.87892
 Alpha virt. eigenvalues --    1.88916   1.93861   1.95857   1.97494   2.00505
 Alpha virt. eigenvalues --    2.04705   2.07492   2.09233   2.13559   2.15335
 Alpha virt. eigenvalues --    2.18070   2.19870   2.28037   2.31286   2.33338
 Alpha virt. eigenvalues --    2.34799   2.39393   2.41646   2.50970   2.52043
 Alpha virt. eigenvalues --    2.59706   2.64285   2.68644   2.72224   2.77760
 Alpha virt. eigenvalues --    2.78433   2.83041   2.84953   2.91105   2.92506
 Alpha virt. eigenvalues --    2.99674   3.03914   3.07278   3.09177   3.09681
 Alpha virt. eigenvalues --    3.16877   3.18356   3.34983   3.49972   3.53140
 Alpha virt. eigenvalues --    3.82995
  Beta  occ. eigenvalues --  -19.29446 -19.25314 -10.35592 -10.33441 -10.31107
  Beta  occ. eigenvalues --  -10.31040 -10.30562  -1.12860  -1.00576  -0.91866
  Beta  occ. eigenvalues --   -0.80974  -0.77153  -0.65005  -0.63055  -0.61504
  Beta  occ. eigenvalues --   -0.56532  -0.52419  -0.49984  -0.49245  -0.46321
  Beta  occ. eigenvalues --   -0.45671  -0.44389  -0.41943  -0.38797  -0.35366
  Beta  occ. eigenvalues --   -0.31753
  Beta virt. eigenvalues --   -0.01094   0.04992   0.11900   0.15237   0.18108
  Beta virt. eigenvalues --    0.18625   0.19671   0.20484   0.21512   0.22130
  Beta virt. eigenvalues --    0.26387   0.28220   0.29100   0.32345   0.38296
  Beta virt. eigenvalues --    0.42124   0.46621   0.50185   0.54588   0.57395
  Beta virt. eigenvalues --    0.57620   0.60441   0.62234   0.65813   0.65991
  Beta virt. eigenvalues --    0.68303   0.68882   0.70881   0.72437   0.72863
  Beta virt. eigenvalues --    0.74799   0.75681   0.77480   0.77920   0.79779
  Beta virt. eigenvalues --    0.80147   0.86118   0.87910   0.94720   0.98358
  Beta virt. eigenvalues --    1.02799   1.04509   1.06769   1.12043   1.14355
  Beta virt. eigenvalues --    1.23014   1.28836   1.33958   1.35778   1.38038
  Beta virt. eigenvalues --    1.39662   1.40786   1.44826   1.53287   1.55021
  Beta virt. eigenvalues --    1.61881   1.64039   1.68018   1.69006   1.70473
  Beta virt. eigenvalues --    1.72250   1.78887   1.79956   1.81798   1.84432
  Beta virt. eigenvalues --    1.88129   1.89249   1.94204   1.96331   1.98461
  Beta virt. eigenvalues --    2.01066   2.05375   2.07961   2.09542   2.14031
  Beta virt. eigenvalues --    2.15680   2.18412   2.20637   2.28389   2.32141
  Beta virt. eigenvalues --    2.33755   2.36663   2.40541   2.42629   2.51572
  Beta virt. eigenvalues --    2.52187   2.60325   2.64780   2.69458   2.73300
  Beta virt. eigenvalues --    2.78604   2.78956   2.83540   2.85278   2.91197
  Beta virt. eigenvalues --    2.92996   2.99874   3.05449   3.07948   3.09712
  Beta virt. eigenvalues --    3.10228   3.17335   3.18846   3.36193   3.50210
  Beta virt. eigenvalues --    3.53191   3.84271
          Condensed to atoms (all electrons):
               1          2          3          4          5          6
     1  C    5.297300   0.288189   0.281587   0.420748  -0.149199  -0.030779
     2  C    0.288189   4.854585  -0.091411  -0.025251   0.285118   0.370051
     3  C    0.281587  -0.091411   5.076954  -0.051652   0.035387   0.011162
     4  H    0.420748  -0.025251  -0.051652   0.607530   0.000887  -0.004343
     5  C   -0.149199   0.285118   0.035387   0.000887   5.063406  -0.004216
     6  H   -0.030779   0.370051   0.011162  -0.004343  -0.004216   0.625627
     7  H   -0.008084   0.369011  -0.019068   0.000569  -0.032937  -0.024701
     8  O    0.062854  -0.067350  -0.038034  -0.002674   0.160567   0.003043
     9  H    0.013350  -0.032865   0.011493  -0.000470   0.417539  -0.003436
    10  O    0.008075   0.004157  -0.002376  -0.000031  -0.022448  -0.000133
    11  C   -0.078132  -0.020327   0.400798   0.014025   0.191730   0.006077
    12  H   -0.054312   0.006207   0.443078  -0.004433   0.009319  -0.000170
    13  H    0.011802   0.005615  -0.058277  -0.000151  -0.052490  -0.000285
    14  H   -0.001414  -0.000292   0.000433   0.000007  -0.001687  -0.000027
               7          8          9         10         11         12
     1  C   -0.008084   0.062854   0.013350   0.008075  -0.078132  -0.054312
     2  C    0.369011  -0.067350  -0.032865   0.004157  -0.020327   0.006207
     3  C   -0.019068  -0.038034   0.011493  -0.002376   0.400798   0.443078
     4  H    0.000569  -0.002674  -0.000470  -0.000031   0.014025  -0.004433
     5  C   -0.032937   0.160567   0.417539  -0.022448   0.191730   0.009319
     6  H   -0.024701   0.003043  -0.003436  -0.000133   0.006077  -0.000170
     7  H    0.643287   0.005588  -0.000048  -0.000005   0.010562   0.000231
     8  O    0.005588   8.186098  -0.020382   0.052467  -0.054948   0.000176
     9  H   -0.000048  -0.020382   0.608085   0.005199  -0.047541  -0.000128
    10  O   -0.000005   0.052467   0.005199   7.910683   0.006646   0.000013
    11  C    0.010562  -0.054948  -0.047541   0.006646   5.174728  -0.050961
    12  H    0.000231   0.000176  -0.000128   0.000013  -0.050961   0.619334
    13  H    0.000314   0.002468  -0.003444   0.000464   0.446045  -0.005453
    14  H    0.000000   0.002722  -0.000192   0.293345   0.001002  -0.000014
              13         14
     1  C    0.011802  -0.001414
     2  C    0.005615  -0.000292
     3  C   -0.058277   0.000433
     4  H   -0.000151   0.000007
     5  C   -0.052490  -0.001687
     6  H   -0.000285  -0.000027
     7  H    0.000314   0.000000
     8  O    0.002468   0.002722
     9  H   -0.003444  -0.000192
    10  O    0.000464   0.293345
    11  C    0.446045   0.001002
    12  H   -0.005453  -0.000014
    13  H    0.617567  -0.000056
    14  H   -0.000056   0.527828
          Atomic-Atomic Spin Densities.
               1          2          3          4          5          6
     1  C    0.781616  -0.045394  -0.028897   0.001091  -0.025484  -0.001734
     2  C   -0.045394  -0.026060   0.007529   0.000695   0.034571   0.003717
     3  C   -0.028897   0.007529  -0.230068   0.000829  -0.000944  -0.000172
     4  H    0.001091   0.000695   0.000829  -0.026669   0.000771   0.000186
     5  C   -0.025484   0.034571  -0.000944   0.000771   0.007230   0.000593
     6  H   -0.001734   0.003717  -0.000172   0.000186   0.000593  -0.000748
     7  H   -0.011538  -0.010176  -0.000002  -0.000937  -0.009861  -0.001227
     8  O   -0.010248   0.008421   0.005139   0.000288   0.003566  -0.000498
     9  H    0.002600  -0.001053  -0.000531  -0.000020  -0.003344  -0.000011
    10  O    0.007731  -0.001144  -0.000380  -0.000053   0.000738  -0.000059
    11  C   -0.040587  -0.010169   0.007851   0.000143  -0.013349   0.000167
    12  H   -0.000850  -0.000351   0.001655  -0.000168  -0.000025  -0.000001
    13  H   -0.000090  -0.000253   0.000040   0.000011   0.000126   0.000007
    14  H   -0.001342   0.000125   0.000054   0.000019   0.000061   0.000008
               7          8          9         10         11         12
     1  C   -0.011538  -0.010248   0.002600   0.007731  -0.040587  -0.000850
     2  C   -0.010176   0.008421  -0.001053  -0.001144  -0.010169  -0.000351
     3  C   -0.000002   0.005139  -0.000531  -0.000380   0.007851   0.001655
     4  H   -0.000937   0.000288  -0.000020  -0.000053   0.000143  -0.000168
     5  C   -0.009861   0.003566  -0.003344   0.000738  -0.013349  -0.000025
     6  H   -0.001227  -0.000498  -0.000011  -0.000059   0.000167  -0.000001
     7  H    0.055087   0.000390   0.000966   0.000123   0.008306   0.000285
     8  O    0.000390  -0.102361   0.001950  -0.068916   0.004409   0.000031
     9  H    0.000966   0.001950  -0.002887  -0.000398   0.000535   0.000022
    10  O    0.000123  -0.068916  -0.000398   0.510325  -0.007060   0.000024
    11  C    0.008306   0.004409   0.000535  -0.007060   0.422823  -0.002180
    12  H    0.000285   0.000031   0.000022   0.000024  -0.002180   0.012370
    13  H   -0.000015   0.000027   0.000071  -0.000023   0.003136   0.000073
    14  H   -0.000017   0.004638  -0.000017   0.001178   0.000952  -0.000011
              13         14
     1  C   -0.000090  -0.001342
     2  C   -0.000253   0.000125
     3  C    0.000040   0.000054
     4  H    0.000011   0.000019
     5  C    0.000126   0.000061
     6  H    0.000007   0.000008
     7  H   -0.000015  -0.000017
     8  O    0.000027   0.004638
     9  H    0.000071  -0.000017
    10  O   -0.000023   0.001178
    11  C    0.003136   0.000952
    12  H    0.000073  -0.000011
    13  H   -0.019468   0.000004
    14  H    0.000004  -0.013833
 Mulliken charges and spin densities:
               1          2
     1  C   -0.061986   0.626874
     2  C    0.054562  -0.039543
     3  C   -0.000074  -0.237897
     4  H    0.045239  -0.023815
     5  C    0.099025  -0.005351
     6  H    0.052131   0.000229
     7  H    0.055280   0.031385
     8  O   -0.292597  -0.153164
     9  H    0.052841  -0.002119
    10  O   -0.256056   0.442084
    11  C    0.000296   0.374977
    12  H    0.037112   0.010874
    13  H    0.035882  -0.016352
    14  H    0.178345  -0.008182
 Sum of Mulliken charges =  -0.00000   1.00000
 Mulliken charges and spin densities with hydrogens summed into heavy atoms:
               1          2
     1  C   -0.016748   0.603059
     2  C    0.161973  -0.007929
     3  C    0.037038  -0.227023
     5  C    0.151866  -0.007470
     8  O   -0.292597  -0.153164
    10  O   -0.077711   0.433902
    11  C    0.036178   0.358624
 APT charges:
               1
     1  C   -0.539360
     2  C   -0.540891
     3  C   -0.378689
     4  H    0.482987
     5  C   -0.221464
     6  H    0.347174
     7  H    0.385495
     8  O   -0.205459
     9  H    0.379311
    10  O   -0.564923
    11  C   -0.620489
    12  H    0.530925
    13  H    0.464813
    14  H    0.480571
 Sum of APT charges =  -0.00000
 APT charges with hydrogens summed into heavy atoms:
               1
     1  C   -0.056373
     2  C    0.191777
     3  C    0.152236
     5  C    0.157847
     8  O   -0.205459
    10  O   -0.084353
    11  C   -0.155676
 Electronic spatial extent (au):  <R**2>=            655.5801
 Charge=             -0.0000 electrons
 Dipole moment (field-independent basis, Debye):
    X=              2.0122    Y=              0.4111    Z=             -0.3952  Tot=              2.0915
 Quadrupole moment (field-independent basis, Debye-Ang):
   XX=            -42.2777   YY=            -39.1369   ZZ=            -37.2720
   XY=             -1.5885   XZ=              0.9384   YZ=             -0.7671
 Traceless Quadrupole moment (field-independent basis, Debye-Ang):
   XX=             -2.7155   YY=              0.4254   ZZ=              2.2902
   XY=             -1.5885   XZ=              0.9384   YZ=             -0.7671
 Octapole moment (field-independent basis, Debye-Ang**2):
  XXX=            -14.5317  YYY=              1.3573  ZZZ=             -5.5155  XYY=             -1.8545
  XXY=              3.1815  XXZ=            -13.7045  XZZ=             -8.0910  YZZ=              0.2942
  YYZ=             -0.2431  XYZ=              1.4387
 Hexadecapole moment (field-independent basis, Debye-Ang**3):
 XXXX=           -443.4414 YYYY=           -209.8629 ZZZZ=           -148.6547 XXXY=            -13.0221
 XXXZ=             28.3257 YYYX=              2.6533 YYYZ=              3.0178 ZZZX=              2.6666
 ZZZY=              1.6228 XXYY=           -109.7404 XXZZ=            -82.1366 YYZZ=            -58.9511
 XXYZ=             -9.3490 YYXZ=             -2.0955 ZZXY=             -3.6372
 N-N= 3.047450235160D+02 E-N=-1.414567725798D+03  KE= 3.414892398292D+02
  Exact polarizability:       0.000       0.000       0.000       0.000       0.000       0.000
 Approx polarizability:      93.452      -4.146      59.691     -11.347       4.982      66.201
                          Isotropic Fermi Contact Couplings
        Atom                 a.u.       MegaHertz       Gauss      10(-4) cm-1
     1  C(13)              0.15657     176.01983      62.80825      58.71390
     2  C(13)             -0.01053     -11.84174      -4.22543      -3.94998
     3  C(13)             -0.06011     -67.57873     -24.11377     -22.54184
     4  H(1)              -0.00715     -31.96565     -11.40614     -10.66259
     5  C(13)              0.00957      10.76012       3.83948       3.58919
     6  H(1)               0.00032       1.43303       0.51134       0.47801
     7  H(1)               0.01119      50.01236      17.84565      16.68233
     8  O(17)              0.37620    -228.05057     -81.37411     -76.06948
     9  H(1)              -0.00068      -3.04408      -1.08620      -1.01540
    10  O(17)              0.13913     -84.33970     -30.09450     -28.13270
    11  C(13)              0.06582      73.99790      26.40429      24.68304
    12  H(1)               0.00377      16.83078       6.00564       5.61415
    13  H(1)              -0.00514     -22.98860      -8.20290      -7.66817
    14  H(1)              -0.00588     -26.30121      -9.38493      -8.77314
 --------------------------------------------------------
       Center         ----  Spin Dipole Couplings  ----
                      3XX-RR        3YY-RR        3ZZ-RR
 --------------------------------------------------------
     1   Atom        0.617034     -0.333423     -0.283611
     2   Atom        0.010260      0.005247     -0.015507
     3   Atom       -0.088175      0.081842      0.006332
     4   Atom        0.001689     -0.029773      0.028084
     5   Atom        0.016872     -0.000635     -0.016237
     6   Atom       -0.004264      0.005723     -0.001459
     7   Atom       -0.003187     -0.000585      0.003772
     8   Atom       -0.612356      0.380759      0.231597
     9   Atom        0.003745     -0.003305     -0.000440
    10   Atom        1.392259     -0.740734     -0.651525
    11   Atom        0.087988     -0.142461      0.054473
    12   Atom       -0.003612      0.003694     -0.000082
    13   Atom       -0.011515      0.012396     -0.000882
    14   Atom       -0.017574     -0.048969      0.066543
 --------------------------------------------------------
                        XY            XZ            YZ
 --------------------------------------------------------
     1   Atom       -0.048086      0.221988     -0.009899
     2   Atom       -0.018265     -0.005942      0.007065
     3   Atom        0.045475     -0.126660      0.033607
     4   Atom       -0.011224     -0.012454      0.030503
     5   Atom       -0.026584     -0.010379     -0.003873
     6   Atom        0.000738     -0.001741     -0.005103
     7   Atom       -0.003360      0.003528     -0.002295
     8   Atom        0.075840      0.716758     -0.163531
     9   Atom        0.000652      0.000570     -0.004161
    10   Atom       -0.569000     -0.705764      0.185096
    11   Atom       -0.100587      0.257772     -0.089168
    12   Atom       -0.001906     -0.002464      0.007593
    13   Atom       -0.010260      0.008007      0.019484
    14   Atom       -0.017463      0.026236     -0.032740
 --------------------------------------------------------


 ---------------------------------------------------------------------------------
              Anisotropic Spin Dipole Couplings in Principal Axis System
 ---------------------------------------------------------------------------------

       Atom             a.u.   MegaHertz   Gauss  10(-4) cm-1        Axes

              Baa    -0.3369   -45.206   -16.131   -15.079  0.1818  0.7673 -0.6150
     1 C(13)  Bbb    -0.3343   -44.859   -16.007   -14.963 -0.1439  0.6394  0.7553
              Bcc     0.6712    90.065    32.137    30.043  0.9727 -0.0488  0.2267
 
              Baa    -0.0177    -2.374    -0.847    -0.792  0.0227 -0.2777  0.9604
     2 C(13)  Bbb    -0.0104    -1.397    -0.498    -0.466  0.6802  0.7083  0.1887
              Bcc     0.0281     3.771     1.345     1.258  0.7327 -0.6490 -0.2050
 
              Baa    -0.1879   -25.221    -9.000    -8.413  0.8033 -0.2051  0.5592
     3 C(13)  Bbb     0.0923    12.387     4.420     4.132  0.4959  0.7502 -0.4373
              Bcc     0.0956    12.834     4.579     4.281 -0.3298  0.6286  0.7043
 
              Baa    -0.0436   -23.248    -8.295    -7.755  0.1265  0.9204 -0.3698
     4 H(1)   Bbb    -0.0032    -1.732    -0.618    -0.578  0.9341  0.0150  0.3567
              Bcc     0.0468    24.980     8.914     8.333 -0.3339  0.3906  0.8579
 
              Baa    -0.0277    -3.716    -1.326    -1.240  0.4964  0.5801  0.6458
     5 C(13)  Bbb    -0.0091    -1.227    -0.438    -0.409 -0.2972 -0.5854  0.7543
              Bcc     0.0368     4.943     1.764     1.649  0.8156 -0.5664 -0.1182
 
              Baa    -0.0055    -2.922    -1.043    -0.975  0.7484  0.2335  0.6208
     6 H(1)   Bbb    -0.0031    -1.634    -0.583    -0.545  0.6534 -0.4206 -0.6295
              Bcc     0.0085     4.556     1.626     1.520  0.1141  0.8767 -0.4673
 
              Baa    -0.0058    -3.111    -1.110    -1.038  0.8625  0.4621 -0.2064
     7 H(1)   Bbb    -0.0011    -0.569    -0.203    -0.190 -0.2782  0.7734  0.5696
              Bcc     0.0069     3.681     1.313     1.228  0.4228 -0.4339  0.7956
 
              Baa    -1.0374    75.068    26.786    25.040  0.8603 -0.1036 -0.4992
     8 O(17)  Bbb     0.3580   -25.905    -9.244    -8.641  0.2570  0.9338  0.2491
              Bcc     0.6794   -49.163   -17.543   -16.399  0.4404 -0.3426  0.8299
 
              Baa    -0.0063    -3.386    -1.208    -1.130 -0.0851  0.8107  0.5793
     9 H(1)   Bbb     0.0025     1.346     0.480     0.449 -0.0653 -0.5846  0.8087
              Bcc     0.0038     2.040     0.728     0.681  0.9942  0.0310  0.1027
 
              Baa    -0.8874    64.209    22.911    21.418  0.0798  0.8861 -0.4567
    10 O(17)  Bbb    -0.8683    62.831    22.420    20.958  0.3634  0.4007  0.8410
              Bcc     1.7557  -127.040   -45.331   -42.376  0.9282 -0.2331 -0.2901
 
              Baa    -0.1883   -25.273    -9.018    -8.430  0.7060  0.3186 -0.6325
    11 C(13)  Bbb    -0.1768   -23.722    -8.465    -7.913 -0.0483  0.9127  0.4058
              Bcc     0.3651    48.995    17.483    16.343  0.7066 -0.2559  0.6598
 
              Baa    -0.0063    -3.360    -1.199    -1.121  0.3408 -0.5268  0.7787
    12 H(1)   Bbb    -0.0040    -2.129    -0.760    -0.710  0.9157  0.3735 -0.1481
              Bcc     0.0103     5.489     1.959     1.831 -0.2128  0.7636  0.6097
 
              Baa    -0.0259   -13.806    -4.926    -4.605  0.6621  0.4733 -0.5811
    13 H(1)   Bbb    -0.0009    -0.458    -0.164    -0.153  0.7419 -0.3042  0.5976
              Bcc     0.0267    14.264     5.090     4.758 -0.1061  0.8267  0.5525
 
              Baa    -0.0605   -32.261   -11.511   -10.761  0.2697  0.9445  0.1878
    14 H(1)   Bbb    -0.0235   -12.556    -4.480    -4.188  0.9203 -0.1954 -0.3391
              Bcc     0.0840    44.817    15.992    14.949  0.2835 -0.2642  0.9218
 

 ---------------------------------------------------------------------------------

 No NMR shielding tensors so no spin-rotation constants.
 Leave Link  601 at Mon May 26 12:53:15 2025, MaxMem=  3758096384 cpu:               0.8 elap:               0.2
 (Enter /gpfs/fs1/soft/bebop/software/custom-built/gaussian/16-c.02/g16/l701.exe)
 ... and contract with generalized density number  0.
 Compute integral second derivatives.
 R6Disp: Adding Grimme-D2 dispersion energy 2nd derivatives to the Hessian.
   1 Symmetry operations used in ECPInt.
 ECPInt:  NShTT=    2016 NPrTT=    7252 LenC2=    2013 LenP2D=    6058.
 LDataN:  DoStor=T MaxTD1= 6 Len=  172
 Leave Link  701 at Mon May 26 12:53:15 2025, MaxMem=  3758096384 cpu:               0.6 elap:               0.1
 (Enter /gpfs/fs1/soft/bebop/software/custom-built/gaussian/16-c.02/g16/l702.exe)
 L702 exits ... SP integral derivatives will be done elsewhere.
 Leave Link  702 at Mon May 26 12:53:15 2025, MaxMem=  3758096384 cpu:               0.1 elap:               0.0
 (Enter /gpfs/fs1/soft/bebop/software/custom-built/gaussian/16-c.02/g16/l703.exe)
 Integral derivatives from FoFJK, PRISM(SPDF).
 Compute integral second derivatives, UseDBF=F ICtDFT=           0.
 Calling FoFJK, ICntrl=    100127 FMM=F ISym2X=0 I1Cent= 0 IOpClX= 1 NMat=1 NMatS=1 NMatT=0.
 FoFJK:  IHMeth= 1 ICntrl=  100127 DoSepK=T KAlg= 0 I1Cent=           0 FoldK=F
 IRaf=         1 NMat=       1 IRICut=       1 DoRegI=T DoRafI=F ISym2E= 0 IDoP0=0 IntGTp=1.
 FoFCou: FMM=F IPFlag=           0 FMFlag=      100000 FMFlg1=         800
         NFxFlg=           0 DoJE=F BraDBF=F KetDBF=F FulRan=T
         wScrn=  0.000000 ICntrl=    100527 IOpCl=  0 I1Cent=           0 NGrid=           0
         NMat0=    1 NMatS0=      1 NMatT0=    0 NMatD0=    1 NMtDS0=    0 NMtDT0=    0
 Symmetry not used in FoFCou.
 Leave Link  703 at Mon May 26 12:53:43 2025, MaxMem=  3758096384 cpu:             165.8 elap:              27.7
 (Enter /gpfs/fs1/soft/bebop/software/custom-built/gaussian/16-c.02/g16/l716.exe)
 Dipole        = 7.91678417D-01 1.61731152D-01-1.55485419D-01
 Polarizability= 0.00000000D+00 0.00000000D+00 0.00000000D+00
                 0.00000000D+00 0.00000000D+00 0.00000000D+00
 ***** Axes restored to original set *****
 -------------------------------------------------------------------
 Center     Atomic                   Forces (Hartrees/Bohr)
 Number     Number              X              Y              Z
 -------------------------------------------------------------------
      1        6           0.011008256   -0.022231632    0.000010981
      2        6          -0.013409928    0.006924459    0.001771958
      3        6           0.000010381    0.003864276   -0.000030738
      4        1          -0.000019664   -0.000006818   -0.000013065
      5        6           0.010930867   -0.011728221   -0.010576995
      6        1          -0.000023264    0.000005227    0.000011050
      7        1          -0.000004586    0.000005644   -0.000004392
      8        8          -0.003615393    0.038070038    0.011260236
      9        1           0.000003421   -0.000001209   -0.000000473
     10        8          -0.004923876   -0.014918463   -0.002450169
     11        6           0.000078275    0.000021420    0.000020231
     12        1          -0.000001163    0.000002564    0.000000770
     13        1          -0.000030054   -0.000007440   -0.000004419
     14        1          -0.000003271    0.000000155    0.000005024
 -------------------------------------------------------------------
 Cartesian Forces:  Max     0.038070038 RMS     0.008552628
 -----------------------------------------------------------------------------------------------
                       Internal Coordinate Forces (Hartree/Bohr or radian)
  Cent   Atom   N1       Length/X         N2         Alpha/Y        N3         Beta/Z          J
 -----------------------------------------------------------------------------------------------
      1  C 
      2  C        1   0.000016(     1)
      3  C        1   0.000059(     2)      2   0.000074(    14)
      4  H        1   0.000025(     3)      2  -0.000003(    15)      3   0.000001(    26)     0
      5  C        2   0.010691(     4)      1   0.021888(    16)      3  -0.010219(    27)     0
      6  H        2   0.000026(     5)      1   0.000000(    17)      5  -0.000000(    28)     0
      7  H        2  -0.000008(     6)      1  -0.000002(    18)      5  -0.000003(    29)     0
      8  O        5   0.010378(     7)      2   0.034078(    19)      1   0.055195(    30)     0
      9  H        5  -0.000000(     8)      2   0.000003(    20)      8   0.000006(    31)     0
     10  O        8  -0.015900(     9)      5   0.000008(    21)      2  -0.000001(    32)     0
     11  C        3   0.000041(    10)      1   0.000088(    22)      2   0.000010(    33)     0
     12  H        3  -0.000002(    11)      1  -0.000000(    23)     11   0.000003(    34)     0
     13  H       11  -0.000031(    12)      3  -0.000004(    24)      1   0.000002(    35)     0
     14  H       10  -0.000004(    13)      8   0.000000(    25)      5   0.000009(    36)     0
 -----------------------------------------------------------------------------------------------
 Internal  Forces:  Max     0.055195351 RMS     0.012094687
 Force constants in internal coordinates: 
                1             2             3             4             5 
      1  0.430721D+00
      2  0.121295D+00  0.532306D+00
      3  0.863068D-03 -0.439989D-03  0.369404D+00
      4  0.183270D-01 -0.358943D-01  0.718533D-03  0.312144D+00
      5  0.259626D-02  0.353311D-02  0.283255D-03 -0.152038D-02  0.347824D+00
      6  0.388675D-02 -0.270043D-02 -0.843273D-04  0.403760D-02  0.768065D-03
      7 -0.664642D-02  0.543567D-01  0.530100D-03  0.152524D-01 -0.306083D-03
      8  0.566232D-02 -0.268482D-02 -0.130120D-04  0.638584D-02  0.245072D-03
      9  0.299095D-01 -0.262956D-01 -0.100754D-02  0.919721D-01  0.149099D-02
     10 -0.851169D-01  0.811287D-01  0.112166D-02 -0.570372D-01  0.160603D-03
     11  0.178878D-02  0.216221D-03  0.240168D-03  0.398344D-03  0.169165D-04
     12 -0.437843D-02  0.282073D-02  0.719072D-04 -0.500790D-02  0.682567D-04
     13 -0.691853D-03 -0.327812D-03  0.207529D-04 -0.160085D-02 -0.660525D-04
     14  0.572238D+00  0.689626D+00 -0.166174D-01 -0.126505D+00  0.125393D-01
     15  0.198965D-01 -0.200157D-01 -0.786479D-03  0.326686D-02 -0.561997D-03
     16  0.469120D+00  0.289435D+00  0.439760D-02  0.185111D-01 -0.951720D-02
     17  0.209073D-01  0.895828D-02 -0.206772D-03 -0.660420D-02 -0.103321D-02
     18  0.334982D-01 -0.504352D-02  0.589850D-03 -0.359909D-02 -0.917292D-02
     19 -0.376691D-01  0.649239D-01 -0.125723D-02 -0.256759D-01 -0.547248D-02
     20 -0.227820D-01 -0.256700D-03  0.113090D-02  0.776596D-03 -0.408789D-03
     21 -0.479069D-02 -0.735127D-02  0.744453D-03  0.129182D-01  0.102667D-03
     22  0.202426D+00  0.686798D+00  0.358214D-02 -0.215088D+00  0.545943D-02
     23 -0.296690D-02  0.228147D-01 -0.231550D-03 -0.811588D-02  0.588466D-03
     24  0.120145D-01 -0.272732D-01  0.747889D-03  0.303009D-01 -0.844750D-03
     25  0.121055D-03 -0.173852D-02  0.122190D-03  0.473130D-02 -0.393201D-04
     26 -0.564024D-02  0.726665D-03  0.574090D-02  0.593646D-03  0.461244D-03
     27  0.264611D+00  0.487461D+00  0.495311D-04  0.103808D-01 -0.446988D-02
     28 -0.700048D-03  0.564915D-02  0.377833D-03  0.130502D-01 -0.254808D-02
     29  0.106486D-02  0.655193D-04  0.484400D-03 -0.231171D-01  0.102478D-01
     30 -0.888696D-01  0.143175D+00 -0.714171D-03 -0.849985D-01  0.302279D-02
     31 -0.290374D-01  0.576291D-02 -0.336037D-03 -0.172825D-01 -0.701052D-03
     32 -0.262868D-02 -0.531565D-02 -0.594129D-04 -0.404768D-04 -0.846175D-03
     33 -0.689168D-01  0.645328D-01  0.857843D-03  0.489931D-01 -0.313758D-02
     34 -0.901332D-02  0.150032D-01  0.202895D-03  0.199345D-02  0.894340D-03
     35 -0.186048D-03 -0.116411D-03  0.451421D-04  0.658322D-02  0.758003D-03
     36  0.355137D-04  0.126259D-03 -0.473213D-04  0.689649D-03 -0.123649D-03
                6             7             8             9            10 
      6  0.339708D+00
      7  0.273495D-02  0.339058D+00
      8  0.188324D-03  0.388851D-02  0.357572D+00
      9 -0.297238D-02  0.315803D-01 -0.115389D-02 -0.647692D-01
     10  0.252251D-02  0.243597D-03 -0.485225D-02  0.196941D-01  0.568476D+00
     11  0.117394D-03 -0.347051D-03 -0.513827D-04  0.787281D-03 -0.781251D-03
     12  0.400761D-04  0.115998D-02  0.195257D-03 -0.302684D-03  0.677428D-02
     13 -0.192105D-03  0.453342D-03 -0.909403D-03 -0.319988D-02 -0.512923D-03
     14 -0.776939D-02  0.583664D-01  0.741161D-02 -0.972993D-02 -0.178311D+00
     15  0.104045D-02  0.144309D-02  0.352625D-03 -0.328011D-02 -0.538803D-02
     16 -0.545644D-02 -0.540485D-01  0.247642D-01  0.305979D+00 -0.315139D+00
     17 -0.837412D-02  0.279123D-02  0.399772D-03  0.261764D-02 -0.347105D-02
     18 -0.693542D-02 -0.350303D-02 -0.213959D-03  0.127301D-02  0.904358D-03
     19  0.138418D-01  0.498894D-01 -0.735353D-02  0.226093D+00 -0.427797D-01
     20  0.394112D-03 -0.197642D-01  0.642191D-03 -0.452763D-02  0.320344D-01
     21 -0.523218D-03  0.210260D-01 -0.837995D-02  0.386558D-01 -0.166462D-02
     22 -0.682094D-03  0.116566D+00 -0.454499D-02  0.422650D-02  0.872081D-01
     23  0.194313D-03 -0.119524D-02 -0.452230D-03  0.163130D-02 -0.113237D-01
[...]
 Alpha virt. eigenvalues --    2.17686   2.19148   2.28129   2.32602   2.32949
 Alpha virt. eigenvalues --    2.35169   2.39161   2.42701   2.50139   2.51766
 Alpha virt. eigenvalues --    2.59812   2.68581   2.69689   2.73883   2.76953
 Alpha virt. eigenvalues --    2.78588   2.82205   2.85613   2.92074   2.92594
 Alpha virt. eigenvalues --    3.00220   3.04310   3.08667   3.09355   3.09804
 Alpha virt. eigenvalues --    3.14732   3.17915   3.26181   3.48999   3.52782
 Alpha virt. eigenvalues --    3.83385
  Beta  occ. eigenvalues --  -19.27856 -19.23363 -10.35382 -10.35358 -10.31478
  Beta  occ. eigenvalues --  -10.31378 -10.31173  -1.11150  -0.98741  -0.92113
  Beta  occ. eigenvalues --   -0.81623  -0.77562  -0.65426  -0.63102  -0.62186
  Beta  occ. eigenvalues --   -0.56017  -0.51261  -0.49837  -0.49175  -0.46793
  Beta  occ. eigenvalues --   -0.45231  -0.44282  -0.41122  -0.37434  -0.35086
  Beta  occ. eigenvalues --   -0.31333
  Beta virt. eigenvalues --   -0.01366   0.04532   0.11127   0.14985   0.18001
  Beta virt. eigenvalues --    0.19192   0.19463   0.20297   0.21329   0.22226
  Beta virt. eigenvalues --    0.26865   0.28197   0.28708   0.31608   0.38049
  Beta virt. eigenvalues --    0.42137   0.45878   0.49941   0.54304   0.57011
  Beta virt. eigenvalues --    0.57170   0.60252   0.61765   0.65629   0.66180
  Beta virt. eigenvalues --    0.68108   0.68432   0.70800   0.72189   0.72661
  Beta virt. eigenvalues --    0.74425   0.75322   0.76943   0.77624   0.79377
  Beta virt. eigenvalues --    0.79889   0.86017   0.88546   0.95077   0.97839
  Beta virt. eigenvalues --    1.03302   1.04397   1.07765   1.12192   1.16582
  Beta virt. eigenvalues --    1.23894   1.28489   1.31858   1.34392   1.37786
  Beta virt. eigenvalues --    1.38783   1.40237   1.44772   1.53713   1.56072
  Beta virt. eigenvalues --    1.61946   1.63707   1.67505   1.68364   1.69754
  Beta virt. eigenvalues --    1.72866   1.77833   1.79707   1.81621   1.84154
  Beta virt. eigenvalues --    1.87236   1.89657   1.93151   1.95800   1.98468
  Beta virt. eigenvalues --    2.01234   2.04745   2.06794   2.09271   2.13638
  Beta virt. eigenvalues --    2.15459   2.18048   2.19717   2.28477   2.33312
  Beta virt. eigenvalues --    2.33864   2.36465   2.40076   2.43548   2.50602
  Beta virt. eigenvalues --    2.51905   2.60267   2.69265   2.70421   2.74846
  Beta virt. eigenvalues --    2.78714   2.80634   2.82663   2.85304   2.91810
  Beta virt. eigenvalues --    2.92998   3.00294   3.05863   3.09541   3.10359
  Beta virt. eigenvalues --    3.11025   3.15592   3.18225   3.28263   3.48922
  Beta virt. eigenvalues --    3.52916   3.85124
          Condensed to atoms (all electrons):
               1          2          3          4          5          6
     1  C    5.291328   0.259738   0.270393   0.411300  -0.164114  -0.029409
     2  C    0.259738   4.865238  -0.082401  -0.021974   0.297537   0.375699
     3  C    0.270393  -0.082401   5.072549  -0.048671   0.031902   0.010272
     4  H    0.411300  -0.021974  -0.048671   0.602626   0.002335  -0.004370
     5  C   -0.164114   0.297537   0.031902   0.002335   5.066140  -0.004547
     6  H   -0.029409   0.375699   0.010272  -0.004370  -0.004547   0.613297
     7  H   -0.006056   0.357445  -0.016221   0.000578  -0.032482  -0.024486
     8  O    0.113731  -0.075643  -0.040964  -0.003633   0.159692   0.002996
     9  H    0.016569  -0.036427   0.011767  -0.000533   0.414340  -0.003346
    10  O    0.006309   0.002488  -0.002485  -0.000025  -0.014734  -0.000051
    11  C   -0.083202  -0.009052   0.412131   0.013794   0.191044   0.005759
    12  H   -0.054119   0.005716   0.443422  -0.004001   0.009498  -0.000142
    13  H    0.011694   0.005527  -0.059110  -0.000156  -0.050993  -0.000249
    14  H   -0.000939  -0.000361   0.000433   0.000005  -0.002036  -0.000020
               7          8          9         10         11         12
     1  C   -0.006056   0.113731   0.016569   0.006309  -0.083202  -0.054119
     2  C    0.357445  -0.075643  -0.036427   0.002488  -0.009052   0.005716
     3  C   -0.016221  -0.040964   0.011767  -0.002485   0.412131   0.443422
     4  H    0.000578  -0.003633  -0.000533  -0.000025   0.013794  -0.004001
     5  C   -0.032482   0.159692   0.414340  -0.014734   0.191044   0.009498
     6  H   -0.024486   0.002996  -0.003346  -0.000051   0.005759  -0.000142
     7  H    0.653100   0.006933   0.000406   0.000006   0.009440   0.000106
     8  O    0.006933   8.200966  -0.020736   0.024924  -0.054024   0.000250
     9  H    0.000406  -0.020736   0.615722   0.007706  -0.049351  -0.000150
    10  O    0.000006   0.024924   0.007706   7.953144   0.006501   0.000004
    11  C    0.009440  -0.054024  -0.049351   0.006501   5.133003  -0.049864
    12  H    0.000106   0.000250  -0.000150   0.000004  -0.049864   0.613988
    13  H    0.000135   0.002253  -0.003791   0.000538   0.447068  -0.005312
    14  H   -0.000003   0.006308  -0.000381   0.288699   0.000625  -0.000005
              13         14
     1  C    0.011694  -0.000939
     2  C    0.005527  -0.000361
     3  C   -0.059110   0.000433
     4  H   -0.000156   0.000005
     5  C   -0.050993  -0.002036
     6  H   -0.000249  -0.000020
     7  H    0.000135  -0.000003
     8  O    0.002253   0.006308
     9  H   -0.003791  -0.000381
    10  O    0.000538   0.288699
    11  C    0.447068   0.000625
    12  H   -0.005312  -0.000005
    13  H    0.611457  -0.000048
    14  H   -0.000048   0.536643
          Atomic-Atomic Spin Densities.
               1          2          3          4          5          6
     1  C    0.635817  -0.047066  -0.035695   0.000014  -0.026221  -0.002194
     2  C   -0.047066  -0.017060   0.008949   0.000968   0.034884   0.004147
     3  C   -0.035695   0.008949  -0.174528   0.000951  -0.001187  -0.000046
     4  H    0.000014   0.000968   0.000951  -0.020844   0.000711   0.000193
     5  C   -0.026221   0.034884  -0.001187   0.000711   0.008502   0.000881
     6  H   -0.002194   0.004147  -0.000046   0.000193   0.000881  -0.000182
     7  H   -0.008466  -0.013042  -0.000604  -0.000868  -0.009671  -0.001693
     8  O    0.008309   0.009526   0.004787  -0.000018   0.001697  -0.000664
     9  H    0.003010  -0.001135  -0.000715  -0.000024  -0.004002  -0.000114
    10  O    0.006777  -0.001239  -0.000569  -0.000042   0.000989  -0.000063
    11  C   -0.031281  -0.010575   0.013744   0.000142  -0.007374   0.000099
    12  H   -0.000264  -0.000339   0.001221  -0.000112  -0.000062  -0.000002
    13  H   -0.000149  -0.000231   0.000259   0.000011   0.000161   0.000006
    14  H   -0.001081   0.000148   0.000082   0.000014   0.000119   0.000010
               7          8          9         10         11         12
     1  C   -0.008466   0.008309   0.003010   0.006777  -0.031281  -0.000264
     2  C   -0.013042   0.009526  -0.001135  -0.001239  -0.010575  -0.000339
     3  C   -0.000604   0.004787  -0.000715  -0.000569   0.013744   0.001221
     4  H   -0.000868  -0.000018  -0.000024  -0.000042   0.000142  -0.000112
     5  C   -0.009671   0.001697  -0.004002   0.000989  -0.007374  -0.000062
     6  H   -0.001693  -0.000664  -0.000114  -0.000063   0.000099  -0.000002
     7  H    0.056558   0.000632   0.001020   0.000121   0.007078   0.000203
     8  O    0.000632  -0.130386   0.001962  -0.083414   0.004799   0.000079
     9  H    0.001020   0.001962  -0.003244  -0.000392   0.001140   0.000021
    10  O    0.000121  -0.083414  -0.000392   0.701739  -0.006177   0.000017
    11  C    0.007078   0.004799   0.001140  -0.006177   0.306250  -0.001452
    12  H    0.000203   0.000079   0.000021   0.000017  -0.001452   0.008780
    13  H   -0.000034   0.000077   0.000086  -0.000083   0.002094   0.000036
    14  H   -0.000016   0.005083  -0.000006   0.001867   0.000607  -0.000006
              13         14
     1  C   -0.000149  -0.001081
     2  C   -0.000231   0.000148
     3  C    0.000259   0.000082
     4  H    0.000011   0.000014
     5  C    0.000161   0.000119
     6  H    0.000006   0.000010
     7  H   -0.000034  -0.000016
     8  O    0.000077   0.005083
     9  H    0.000086  -0.000006
    10  O   -0.000083   0.001867
    11  C    0.002094   0.000607
    12  H    0.000036  -0.000006
    13  H   -0.014479   0.000008
    14  H    0.000008  -0.019630
 Mulliken charges and spin densities:
               1          2
     1  C   -0.043223   0.501509
     2  C    0.056471  -0.032066
     3  C   -0.003018  -0.183352
     4  H    0.052725  -0.018904
     5  C    0.096418  -0.000574
     6  H    0.058596   0.000379
     7  H    0.051098   0.031219
     8  O   -0.323054  -0.177531
     9  H    0.048206  -0.002393
    10  O   -0.273025   0.619531
    11  C    0.026128   0.279095
    12  H    0.040610   0.008123
    13  H    0.040986  -0.012238
    14  H    0.171082  -0.012799
 Sum of Mulliken charges =  -0.00000   1.00000
 Mulliken charges and spin densities with hydrogens summed into heavy atoms:
               1          2
     1  C    0.009503   0.482606
     2  C    0.166165  -0.000468
     3  C    0.037592  -0.175229
     5  C    0.144623  -0.002966
     8  O   -0.323054  -0.177531
    10  O   -0.101943   0.606731
    11  C    0.067114   0.266857
 Electronic spatial extent (au):  <R**2>=            663.7883
 Charge=             -0.0000 electrons
 Dipole moment (field-independent basis, Debye):
    X=              2.5925    Y=              0.1285    Z=             -0.4619  Tot=              2.6364
 Quadrupole moment (field-independent basis, Debye-Ang):
   XX=            -41.9158   YY=            -39.0287   ZZ=            -37.1419
   XY=             -0.4161   XZ=              0.7877   YZ=             -0.0682
 Traceless Quadrupole moment (field-independent basis, Debye-Ang):
   XX=             -2.5536   YY=              0.3334   ZZ=              2.2203
   XY=             -0.4161   XZ=              0.7877   YZ=             -0.0682
 Octapole moment (field-independent basis, Debye-Ang**2):
  XXX=            -14.7167  YYY=              1.3437  ZZZ=             -5.7994  XYY=             -0.7052
  XXY=             -0.6079  XXZ=            -15.1296  XZZ=             -7.6604  YZZ=             -0.1206
  YYZ=              0.2230  XYZ=             -0.2297
 Hexadecapole moment (field-independent basis, Debye-Ang**3):
 XXXX=           -441.2498 YYYY=           -212.0436 ZZZZ=           -145.7711 XXXY=             -3.1599
 XXXZ=             31.1758 YYYX=              3.2996 YYYZ=              3.6141 ZZZX=              2.3967
 ZZZY=              3.0755 XXYY=           -113.8820 XXZZ=            -81.5690 YYZZ=            -59.2786
 XXYZ=             -5.0209 YYXZ=             -3.4678 ZZXY=             -2.0119
 N-N= 3.031304285947D+02 E-N=-1.411433371142D+03  KE= 3.414825007650D+02
                          Isotropic Fermi Contact Couplings
        Atom                 a.u.       MegaHertz       Gauss      10(-4) cm-1
     1  C(13)              0.11378     127.91204      45.64220      42.66686
     2  C(13)             -0.00597      -6.70884      -2.39388      -2.23783
     3  C(13)             -0.04611     -51.84054     -18.49799     -17.29214
     4  H(1)              -0.00567     -25.35190      -9.04619      -8.45648
     5  C(13)              0.00957      10.75401       3.83730       3.58715
     6  H(1)               0.00046       2.03455       0.72598       0.67865
     7  H(1)               0.01125      50.28372      17.94248      16.77284
     8  O(17)              0.35606    -215.84436     -77.01864     -71.99793
     9  H(1)              -0.00087      -3.89345      -1.38928      -1.29872
    10  O(17)              0.22453    -136.10677     -48.56628     -45.40033
    11  C(13)              0.04869      54.74200      19.53331      18.25997
    12  H(1)               0.00284      12.67533       4.52287       4.22803
    13  H(1)              -0.00387     -17.31445      -6.17823      -5.77548
    14  H(1)              -0.00824     -36.85059     -13.14921     -12.29203
 --------------------------------------------------------
       Center         ----  Spin Dipole Couplings  ----
                      3XX-RR        3YY-RR        3ZZ-RR
 --------------------------------------------------------
     1   Atom        0.493576     -0.267445     -0.226131
     2   Atom        0.013458      0.003948     -0.017406
     3   Atom       -0.064033      0.064031      0.000002
     4   Atom        0.001122     -0.024027      0.022904
     5   Atom        0.017244     -0.001654     -0.015591
     6   Atom       -0.003154      0.004827     -0.001673
     7   Atom       -0.001994     -0.000845      0.002839
     8   Atom       -0.703152      0.518436      0.184716
     9   Atom        0.004348     -0.004209     -0.000139
    10   Atom        1.964475     -1.032086     -0.932390
    11   Atom        0.064828     -0.112700      0.047872
    12   Atom       -0.002380      0.002854     -0.000474
    13   Atom       -0.007698      0.008842     -0.001144
    14   Atom       -0.016875     -0.081348      0.098223
 --------------------------------------------------------
                        XY            XZ            YZ
 --------------------------------------------------------
     1   Atom       -0.033860      0.179776     -0.005612
     2   Atom       -0.017365     -0.007198      0.006989
     3   Atom        0.030299     -0.100438      0.022437
     4   Atom       -0.008271     -0.009581      0.024261
     5   Atom       -0.023731     -0.005851     -0.005708
     6   Atom        0.000284     -0.001559     -0.003302
     7   Atom       -0.002425      0.003194     -0.001793
     8   Atom       -0.038340      0.805827     -0.203792
     9   Atom       -0.000845      0.003705     -0.004734
    10   Atom       -0.793057     -0.909701      0.245424
    11   Atom       -0.066637      0.196297     -0.060781
    12   Atom       -0.001598     -0.002069      0.005503
    13   Atom       -0.007332      0.006071      0.014995
    14   Atom       -0.007369      0.049004      0.011937
 --------------------------------------------------------


 ---------------------------------------------------------------------------------
              Anisotropic Spin Dipole Couplings in Principal Axis System
 ---------------------------------------------------------------------------------

       Atom             a.u.   MegaHertz   Gauss  10(-4) cm-1        Axes

              Baa    -0.2710   -36.371   -12.978   -12.132  0.1862  0.7336 -0.6535
     1 C(13)  Bbb    -0.2664   -35.749   -12.756   -11.925 -0.1404  0.6782  0.7213
              Bcc     0.5374    72.119    25.734    24.056  0.9724 -0.0425  0.2293
 
              Baa    -0.0197    -2.641    -0.942    -0.881  0.0983 -0.2151  0.9716
     2 C(13)  Bbb    -0.0092    -1.231    -0.439    -0.411  0.6265  0.7719  0.1075
              Bcc     0.0289     3.872     1.382     1.292  0.7732 -0.5982 -0.2107
 
              Baa    -0.1443   -19.358    -6.907    -6.457  0.7944 -0.1781  0.5808
     3 C(13)  Bbb     0.0708     9.505     3.392     3.171  0.1968  0.9799  0.0314
              Bcc     0.0734     9.853     3.516     3.287 -0.5747  0.0893  0.8135
 
              Baa    -0.0348   -18.545    -6.617    -6.186  0.1141  0.9224 -0.3691
     4 H(1)   Bbb    -0.0025    -1.321    -0.472    -0.441  0.9412  0.0187  0.3374
              Bcc     0.0372    19.867     7.089     6.627 -0.3181  0.3859  0.8660
 
              Baa    -0.0248    -3.324    -1.186    -1.109  0.4373  0.6117  0.6592
     5 C(13)  Bbb    -0.0086    -1.157    -0.413    -0.386 -0.3458 -0.5622  0.7512
              Bcc     0.0334     4.481     1.599     1.495  0.8301 -0.5565 -0.0343
 
              Baa    -0.0045    -2.385    -0.851    -0.796  0.7278  0.2097  0.6530
     6 H(1)   Bbb    -0.0018    -0.971    -0.347    -0.324  0.6795 -0.3495 -0.6451
              Bcc     0.0063     3.357     1.198     1.120  0.0930  0.9132 -0.3969
 
              Baa    -0.0043    -2.294    -0.819    -0.765  0.8485  0.4583 -0.2645
     7 H(1)   Bbb    -0.0013    -0.687    -0.245    -0.229 -0.2595  0.7960  0.5469
              Bcc     0.0056     2.981     1.064     0.994  0.4612 -0.3954  0.7943
 
              Baa    -1.1822    85.544    30.524    28.534  0.8579 -0.0420 -0.5120
     8 O(17)  Bbb     0.3842   -27.801    -9.920    -9.273  0.3246  0.8168  0.4769
              Bcc     0.7980   -57.743   -20.604   -19.261  0.3982 -0.5754  0.7144
 
              Baa    -0.0075    -3.998    -1.427    -1.334 -0.1242  0.8047  0.5805
     9 H(1)   Bbb     0.0001     0.071     0.025     0.024  0.6206  0.5195 -0.5874
              Bcc     0.0074     3.927     1.401     1.310  0.7743 -0.2873  0.5639
 
              Baa    -1.2372    89.525    31.945    29.862  0.1136  0.9116 -0.3950
    10 O(17)  Bbb    -1.1885    85.996    30.686    28.685  0.3384  0.3383  0.8781
              Bcc     2.4257  -175.521   -62.630   -58.548  0.9341 -0.2334 -0.2701
 
              Baa    -0.1408   -18.891    -6.741    -6.301  0.7087  0.2830 -0.6463
    11 C(13)  Bbb    -0.1331   -17.858    -6.372    -5.957 -0.0435  0.9318  0.3602
              Bcc     0.2739    36.750    13.113    12.258  0.7042 -0.2272  0.6727
 
              Baa    -0.0048    -2.573    -0.918    -0.858  0.3479 -0.4973  0.7948
    12 H(1)   Bbb    -0.0028    -1.470    -0.525    -0.490  0.9047  0.4005 -0.1455
              Bcc     0.0076     4.043     1.443     1.349 -0.2459  0.7696  0.5892
 
              Baa    -0.0193   -10.319    -3.682    -3.442  0.6249  0.4872 -0.6100
    13 H(1)   Bbb    -0.0005    -0.291    -0.104    -0.097  0.7748 -0.2912  0.5611
              Bcc     0.0199    10.609     3.786     3.539 -0.0957  0.8233  0.5595
 
              Baa    -0.0842   -44.922   -16.029   -14.984  0.1904  0.9750 -0.1149
    14 H(1)   Bbb    -0.0324   -17.312    -6.177    -5.775  0.9202 -0.2180 -0.3252
              Bcc     0.1166    62.234    22.207    20.759  0.3421  0.0439  0.9386
 

 ---------------------------------------------------------------------------------

 No NMR shielding tensors so no spin-rotation constants.
 Leave Link  601 at Mon May 26 12:55:02 2025, MaxMem=  3758096384 cpu:               0.8 elap:               0.1
 (Enter /gpfs/fs1/soft/bebop/software/custom-built/gaussian/16-c.02/g16/l9999.exe)
 Unable to Open any file for archive entry.
 1\1\GINC-CSED-0039\FTS\UwB97XD\def2SVP\C5H7O2(2)\COPAN\26-May-2025\1\\
 #P wb97xd/def2svp # SCF=(xqc) # POpt=(CALCFC,TS,NOEIGEN,MAXCYCLES=60) 
 # int=ultrafine\\comment:\\0,2\C\C,1,R1\C,1,R2,2,A2\H,1,R3,2,A3,3,D3,0
 \C,2,R4,1,A4,3,D4,0\H,2,R5,1,A5,5,D5,0\H,2,R6,1,A6,5,D6,0\O,5,R7,2,A7,
 1,D7,0\H,5,R8,2,A8,8,D8,0\O,8,R9,5,A9,2,D9,0\C,3,R10,1,A10,2,D10,0\H,3
 ,R11,1,A11,11,D11,0\H,11,R12,3,A12,1,D12,0\H,10,R13,8,A13,5,D13,0\\R1=
 1.51654248\R2=1.46101837\R3=1.09222738\R5=1.09652606\R6=1.10269422\R8=
 1.09626662\R10=1.351939\R11=1.08970907\R12=1.08860635\R13=0.96686221\A
 2=106.56524888\A3=125.58774294\A5=114.51537171\A6=113.71217094\A8=121.
 28945331\A9=99.12147922\A10=105.30812498\A11=125.78062917\A12=129.2217
 9693\A13=92.32904524\D3=160.91306114\D5=112.52553665\D6=242.15075639\D
 8=119.23168293\D9=161.84569119\D10=327.00482444\D11=185.56979328\D12=1
 83.06316648\D13=170.01304963\R4=1.52867946\A4=86.6190499\D4=52.6277248
 3\R7=1.43562965\A7=93.46062516\D7=51.6117219\R9=1.80587053\\Version=ES
 64L-G16RevC.01\State=2-A\HF=-344.5773692\S2=0.864176\S2-1=0.\S2A=0.753
 472\RMSD=8.884e-09\RMSF=1.143e-05\Dipole=-0.0124477,-0.9899431,-0.3094
 554\Quadrupole=0.561366,-1.6863033,1.1249373,-0.0201349,0.6124367,-1.0
 242455\PG=C01 [X(C5H7O2)]\\@
 The archive entry for this job was punched.


 I DON'T EXACTLY UNDERSTAND WHAT YOU ARE SAYING,
 BUT YOU ARE ABSOLUTELY RIGHT.
     M.S.GORDON, IN A NDSU FACULTY MEETING
 Job cpu time:       0 days  0 hours 14 minutes 20.9 seconds.
 Elapsed time:       0 days  0 hours  2 minutes 35.9 seconds.
 File lengths (MBytes):  RWF=     60 Int=      0 D2E=      0 Chk=      3 Scr=      1
 Normal termination of Gaussian 16 at Mon May 26 12:55:02 2025.
